/*--------------------------------*- C++ -*----------------------------------*\
  =========                 |
  \\      /  F ield         | OpenFOAM: The Open Source CFD Toolbox
   \\    /   O peration     | Website:  https://openfoam.org
    \\  /    A nd           | Version:  9
     \\/     M anipulation  |
\*---------------------------------------------------------------------------*/
FoamFile
{
    format      ascii;
    class       surfaceScalarField;
    location    "200";
    object      phi;
}
// * * * * * * * * * * * * * * * * * * * * * * * * * * * * * * * * * * * * * //

dimensions      [0 3 -1 0 0 0 0];

internalField   nonuniform List<scalar> 
22800
(
0.00251454
-1.57098e-05
1.16529e-06
0.0025236
-9.41785e-06
3.62109e-07
0.00252295
3.76736e-07
2.75605e-07
0.00251313
9.58335e-06
2.37244e-07
0.00249746
1.58908e-05
-2.23045e-07
0.00247949
1.86805e-05
-7.11248e-07
0.00246159
1.89239e-05
-1.02559e-06
0.00244496
1.77976e-05
-1.16896e-06
0.00243011
1.60433e-05
-1.18958e-06
0.00241716
1.40759e-05
-1.12904e-06
0.00240604
1.21485e-05
-1.02304e-06
0.00239653
1.04068e-05
-9.00911e-07
0.0023884
8.91341e-06
-7.82267e-07
0.0023814
7.67808e-06
-6.77429e-07
0.0023753
6.68862e-06
-5.90171e-07
0.00236989
5.93097e-06
-5.19583e-07
0.00236493
5.4263e-06
-4.65777e-07
0.00236016
5.17368e-06
-4.07822e-07
0.00235505
5.46916e-06
-3.57823e-07
5.82682e-06
-1.6127e-07
0.00249497
-1.23346e-05
1.65973e-06
0.00248846
-4.20549e-06
1.29067e-06
0.00248625
1.32414e-06
1.26116e-06
0.0024886
5.44664e-06
1.79343e-06
0.00249303
9.08391e-06
2.37286e-06
0.00249721
1.19163e-05
2.58903e-06
0.00249992
1.37628e-05
2.45141e-06
0.00250088
1.47264e-05
2.10255e-06
0.00250027
1.4985e-05
1.66871e-06
0.0024984
1.4717e-05
1.23604e-06
0.0024956
1.4095e-05
8.53655e-07
0.00249219
1.32701e-05
5.41856e-07
0.00248844
1.23576e-05
3.02445e-07
0.00248456
1.14375e-05
1.27629e-07
0.00248067
1.05652e-05
6.9516e-09
0.0024769
9.77654e-06
-7.37032e-08
0.00247334
9.11436e-06
-1.28403e-07
0.00247009
8.5856e-06
-1.554e-07
0.00246734
8.37308e-06
-1.62259e-07
7.98043e-06
-1.09185e-07
0.00248936
-2.35794e-06
6.64857e-07
0.00248672
-2.12385e-06
5.53321e-07
0.0024874
1.25442e-07
5.24246e-07
0.00248949
2.72153e-06
6.28637e-07
0.00249227
5.5143e-06
7.91256e-07
0.00249522
8.08746e-06
8.83066e-07
0.00249797
1.01175e-05
8.91301e-07
0.00250031
1.15507e-05
8.43018e-07
0.00250209
1.24486e-05
7.56316e-07
0.00250326
1.28945e-05
6.47639e-07
0.00250384
1.29802e-05
5.32988e-07
0.00250389
1.27996e-05
4.23474e-07
0.00250348
1.24366e-05
3.2486e-07
0.00250272
1.196e-05
2.39319e-07
0.0025017
1.14249e-05
1.67049e-07
0.00250049
1.08732e-05
1.0671e-07
0.00249921
1.03428e-05
5.65686e-08
0.00249793
9.84451e-06
1.88485e-08
0.00249686
9.44613e-06
-6.30685e-09
8.79038e-06
-2.37502e-08
0.00249754
-6.60281e-07
7.58491e-07
0.00249538
-7.25833e-07
7.62948e-07
0.00249394
7.5046e-07
8.18152e-07
0.00249327
2.48757e-06
9.00578e-07
0.00249358
4.24617e-06
9.62948e-07
0.00249474
5.95098e-06
9.75978e-07
0.00249646
7.45485e-06
9.40019e-07
0.00249846
8.6819e-06
8.6866e-07
0.00250052
9.6207e-06
7.74308e-07
0.00250246
1.02815e-05
6.68889e-07
0.00250419
1.06892e-05
5.62669e-07
0.00250564
1.08807e-05
4.62201e-07
0.00250681
1.08977e-05
3.70759e-07
0.0025077
1.07804e-05
2.89571e-07
0.00250834
1.05649e-05
2.1869e-07
0.00250878
1.02813e-05
1.57449e-07
0.00250906
9.95496e-06
1.05137e-07
0.00250925
9.59139e-06
6.17771e-08
0.00250946
9.20941e-06
3.08192e-08
8.58535e-06
-2.1471e-09
0.0024988
-9.41646e-08
6.37546e-07
0.00249738
1.65212e-07
5.23433e-07
0.00249651
1.12609e-06
4.97955e-07
0.00249618
2.30027e-06
5.19179e-07
0.00249637
3.50309e-06
5.46377e-07
0.00249706
4.69549e-06
5.6797e-07
0.00249815
5.79592e-06
5.72503e-07
0.00249953
6.7429e-06
5.57546e-07
0.00250111
7.51727e-06
5.25695e-07
0.00250279
8.11859e-06
4.81332e-07
0.00250449
8.55518e-06
4.29384e-07
0.00250616
8.84273e-06
3.7403e-07
0.00250773
9.00101e-06
3.18255e-07
0.0025092
9.05046e-06
2.64053e-07
0.00251054
9.0103e-06
2.12702e-07
0.00251176
8.89657e-06
1.64927e-07
0.00251287
8.72182e-06
1.21502e-07
0.0025139
8.48556e-06
8.25773e-08
0.00251486
8.18879e-06
5.47646e-08
7.70627e-06
1.95728e-08
0.00249926
9.76014e-08
5.53104e-07
0.00249854
4.412e-07
4.35795e-07
0.00249813
1.1068e-06
4.33916e-07
0.00249801
1.94187e-06
4.77549e-07
0.00249819
2.81196e-06
5.06827e-07
0.0024987
3.66892e-06
5.19327e-07
0.00249951
4.4676e-06
5.15686e-07
0.00250059
5.1708e-06
4.97864e-07
0.00250187
5.76386e-06
4.68895e-07
0.00250331
6.24515e-06
4.31777e-07
0.00250486
6.61853e-06
3.89478e-07
0.00250647
6.89184e-06
3.44536e-07
0.00250809
7.07539e-06
2.98807e-07
0.00250971
7.17988e-06
2.53576e-07
0.0025113
7.21511e-06
2.09771e-07
0.00251284
7.18872e-06
1.68019e-07
0.00251432
7.10555e-06
1.29237e-07
0.00251575
6.96264e-06
9.33447e-08
0.00251712
6.75649e-06
6.85381e-08
6.42453e-06
3.47798e-08
0.00249946
1.34693e-07
4.99544e-07
0.00249907
4.55701e-07
3.74389e-07
0.00249889
9.28933e-07
3.65385e-07
0.00249892
1.51043e-06
3.99454e-07
0.00249919
2.12169e-06
4.1755e-07
0.00249971
2.72341e-06
4.23434e-07
0.00250047
3.28807e-06
4.20934e-07
0.00250144
3.79194e-06
4.10137e-07
0.00250259
4.22309e-06
3.91682e-07
0.00250389
4.57919e-06
3.66851e-07
0.00250531
4.86262e-06
3.37206e-07
0.00250682
5.07852e-06
3.04274e-07
0.00250839
5.23344e-06
2.69335e-07
0.00251
5.33392e-06
2.33417e-07
0.00251163
5.38553e-06
1.97403e-07
0.00251327
5.39199e-06
1.61992e-07
0.00251489
5.35487e-06
1.28284e-07
0.00251649
5.27122e-06
9.62248e-08
0.00251803
5.13783e-06
7.49062e-08
4.92715e-06
4.40431e-08
0.00249956
1.09153e-07
4.63787e-07
0.00249934
3.48414e-07
3.33258e-07
0.00249929
6.57548e-07
3.21593e-07
0.00249941
1.0266e-06
3.55177e-07
0.00249975
1.41674e-06
3.73367e-07
0.00250029
1.8023e-06
3.79527e-07
0.00250103
2.16612e-06
3.78337e-07
0.00250196
2.4936e-06
3.70022e-07
0.00250305
2.77625e-06
3.55116e-07
0.00250428
3.01176e-06
3.34733e-07
0.00250563
3.20134e-06
3.10072e-07
0.00250708
3.34815e-06
2.82259e-07
0.00250861
3.45629e-06
2.52282e-07
0.00251019
3.52983e-06
2.20977e-07
0.00251182
3.57211e-06
1.8911e-07
0.00251346
3.58515e-06
1.57328e-07
0.00251512
3.56946e-06
1.2673e-07
0.00251677
3.52319e-06
9.72264e-08
0.00251839
3.44448e-06
7.82417e-08
3.32303e-06
4.94833e-08
0.00249961
5.90566e-08
4.4181e-07
0.00249946
1.85179e-07
3.08575e-07
0.00249949
3.38638e-07
2.95358e-07
0.00249967
5.18305e-07
3.27925e-07
0.00250003
7.08658e-07
3.45108e-07
0.00250058
8.97344e-07
3.5033e-07
0.00250133
1.076e-06
3.49148e-07
0.00250224
1.23766e-06
3.42071e-07
0.00250331
1.37794e-06
3.29419e-07
0.00250451
1.49539e-06
3.12e-07
0.00250583
1.59039e-06
2.90688e-07
0.00250725
1.66443e-06
2.66319e-07
0.00250875
1.71949e-06
2.39677e-07
0.00251031
1.75757e-06
2.11474e-07
0.00251192
1.78032e-06
1.82408e-07
0.00251356
1.7887e-06
1.53098e-07
0.00251522
1.78293e-06
1.24642e-07
0.00251689
1.7622e-06
9.69395e-08
0.00251853
1.72575e-06
7.95446e-08
1.67062e-06
5.21921e-08
0.00249963
-1.39946e-12
4.31369e-07
0.00249952
-4.14946e-12
2.96999e-07
0.00249957
-6.67964e-12
2.8303e-07
0.00249977
-8.9497e-12
3.15098e-07
0.00250015
-1.10453e-11
3.32005e-07
0.00250071
-1.3008e-11
3.37116e-07
0.00250145
-1.48005e-11
3.36208e-07
0.00250236
-1.63275e-11
3.29832e-07
0.00250342
-1.7475e-11
3.18204e-07
0.00250461
-1.81204e-11
3.02038e-07
0.00250592
-1.8137e-11
2.82117e-07
0.00250733
-1.74089e-11
2.59184e-07
0.00250881
-1.58451e-11
2.33951e-07
0.00251036
-1.33896e-11
2.07082e-07
0.00251196
-1.0046e-11
1.79246e-07
0.0025136
-5.92704e-12
1.51044e-07
0.00251526
-1.29915e-12
1.23569e-07
0.00251693
3.41686e-12
9.6709e-08
0.00251857
7.74692e-12
8.00492e-08
1.1125e-11
5.3322e-08
0.00249963
-5.90594e-08
4.31368e-07
0.00249952
-1.85187e-07
2.96999e-07
0.00249957
-3.38651e-07
2.8303e-07
0.00249977
-5.18323e-07
3.15097e-07
0.00250015
-7.0868e-07
3.32005e-07
0.00250071
-8.9737e-07
3.37116e-07
0.00250145
-1.07603e-06
3.36208e-07
0.00250236
-1.23769e-06
3.29832e-07
0.00250342
-1.37798e-06
3.18204e-07
0.00250461
-1.49542e-06
3.02038e-07
0.00250592
-1.59043e-06
2.82117e-07
0.00250733
-1.66446e-06
2.59184e-07
0.00250881
-1.71952e-06
2.33951e-07
0.00251036
-1.7576e-06
2.07082e-07
0.00251196
-1.78034e-06
1.79246e-07
0.0025136
-1.78872e-06
1.51044e-07
0.00251526
-1.78294e-06
1.23569e-07
0.00251693
-1.76219e-06
9.67091e-08
0.00251857
-1.72573e-06
8.00492e-08
-1.67059e-06
5.33221e-08
0.00249961
-1.09156e-07
4.4181e-07
0.00249946
-3.48422e-07
3.08574e-07
0.00249949
-6.57561e-07
2.95357e-07
0.00249967
-1.02662e-06
3.27925e-07
0.00250003
-1.41676e-06
3.45108e-07
0.00250058
-1.80232e-06
3.5033e-07
0.00250133
-2.16615e-06
3.49148e-07
0.00250224
-2.49363e-06
3.42071e-07
0.00250331
-2.77629e-06
3.29419e-07
0.00250451
-3.0118e-06
3.12e-07
0.00250583
-3.20138e-06
2.90688e-07
0.00250725
-3.34818e-06
2.66319e-07
0.00250875
-3.45632e-06
2.39677e-07
0.00251031
-3.52986e-06
2.11474e-07
0.00251192
-3.57213e-06
1.82408e-07
0.00251356
-3.58516e-06
1.53098e-07
0.00251522
-3.56947e-06
1.24642e-07
0.00251689
-3.52318e-06
9.69396e-08
0.00251853
-3.44446e-06
7.95447e-08
-3.323e-06
5.21922e-08
0.00249956
-1.34695e-07
4.63786e-07
0.00249934
-4.55709e-07
3.33257e-07
0.00249929
-9.28945e-07
3.21593e-07
0.00249941
-1.51044e-06
3.55177e-07
0.00249975
-2.12171e-06
3.73366e-07
0.00250029
-2.72343e-06
3.79527e-07
0.00250103
-3.2881e-06
3.78337e-07
0.00250196
-3.79197e-06
3.70022e-07
0.00250305
-4.22312e-06
3.55116e-07
0.00250428
-4.57922e-06
3.34733e-07
0.00250563
-4.86265e-06
3.10072e-07
0.00250708
-5.07855e-06
2.82259e-07
0.00250861
-5.23347e-06
2.52282e-07
0.00251019
-5.33395e-06
2.20977e-07
0.00251182
-5.38554e-06
1.8911e-07
0.00251346
-5.392e-06
1.57328e-07
0.00251512
-5.35487e-06
1.2673e-07
0.00251677
-5.27122e-06
9.72265e-08
0.00251839
-5.13782e-06
7.82418e-08
-4.92712e-06
4.94834e-08
0.00249946
-9.76038e-08
4.99543e-07
0.00249907
-4.41207e-07
3.74388e-07
0.00249889
-1.10681e-06
3.65384e-07
0.00249892
-1.94189e-06
3.99453e-07
0.00249919
-2.81198e-06
4.17549e-07
0.00249971
-3.66894e-06
4.23434e-07
0.00250047
-4.46762e-06
4.20934e-07
0.00250144
-5.17082e-06
4.10137e-07
0.00250259
-5.76389e-06
3.91682e-07
0.00250389
-6.24518e-06
3.66851e-07
0.00250531
-6.61856e-06
3.37206e-07
0.00250682
-6.89187e-06
3.04274e-07
0.00250839
-7.07542e-06
2.69335e-07
0.00251
-7.1799e-06
2.33418e-07
0.00251163
-7.21513e-06
1.97403e-07
0.00251327
-7.18873e-06
1.61992e-07
0.00251489
-7.10555e-06
1.28284e-07
0.00251649
-6.96263e-06
9.6225e-08
0.00251803
-6.75647e-06
7.49064e-08
-6.42451e-06
4.40433e-08
0.00249926
9.41623e-08
5.53103e-07
0.00249854
-1.65218e-07
4.35793e-07
0.00249813
-1.1261e-06
4.33915e-07
0.00249801
-2.30028e-06
4.77548e-07
0.00249819
-3.5031e-06
5.06827e-07
0.0024987
-4.69551e-06
5.19326e-07
0.00249951
-5.79594e-06
5.15686e-07
0.00250059
-6.74293e-06
4.97864e-07
0.00250187
-7.5173e-06
4.68894e-07
0.00250331
-8.11862e-06
4.31777e-07
0.00250486
-8.55521e-06
3.89478e-07
0.00250647
-8.84275e-06
3.44536e-07
0.00250809
-9.00103e-06
2.98807e-07
0.00250971
-9.05048e-06
2.53576e-07
0.0025113
-9.01031e-06
2.09771e-07
0.00251284
-8.89658e-06
1.68019e-07
0.00251432
-8.72182e-06
1.29238e-07
0.00251575
-8.48556e-06
9.3345e-08
0.00251712
-8.18877e-06
6.85384e-08
-7.70624e-06
3.47799e-08
0.0024988
6.60279e-07
6.37545e-07
0.00249738
7.25827e-07
5.23431e-07
0.00249651
-7.50469e-07
4.97953e-07
0.00249618
-2.48758e-06
5.19177e-07
0.00249637
-4.24619e-06
5.46376e-07
0.00249706
-5.95099e-06
5.67969e-07
0.00249815
-7.45487e-06
5.72502e-07
0.00249953
-8.68192e-06
5.57545e-07
0.00250111
-9.62072e-06
5.25695e-07
0.00250279
-1.02816e-05
4.81332e-07
0.00250449
-1.06892e-05
4.29384e-07
0.00250616
-1.08807e-05
3.7403e-07
0.00250773
-1.08977e-05
3.18255e-07
0.0025092
-1.07804e-05
2.64053e-07
0.00251054
-1.0565e-05
2.12702e-07
0.00251176
-1.02813e-05
1.64927e-07
0.00251287
-9.95497e-06
1.21502e-07
0.0025139
-9.59138e-06
8.25778e-08
0.00251486
-9.20939e-06
5.47649e-08
-8.58532e-06
1.9573e-08
0.00249754
2.35794e-06
7.5849e-07
0.00249538
2.12384e-06
7.62947e-07
0.00249394
-1.25449e-07
8.1815e-07
0.00249327
-2.72154e-06
9.00577e-07
0.00249358
-5.51431e-06
9.62947e-07
0.00249474
-8.08747e-06
9.75978e-07
0.00249646
-1.01175e-05
9.40018e-07
0.00249846
-1.15507e-05
8.68659e-07
0.00250052
-1.24486e-05
7.74307e-07
0.00250246
-1.28945e-05
6.68889e-07
0.00250419
-1.29802e-05
5.62669e-07
0.00250564
-1.27996e-05
4.62202e-07
0.00250681
-1.24366e-05
3.7076e-07
0.0025077
-1.196e-05
2.89572e-07
0.00250834
-1.1425e-05
2.18691e-07
0.00250878
-1.08732e-05
1.57451e-07
0.00250906
-1.03428e-05
1.05138e-07
0.00250925
-9.84451e-06
6.17781e-08
0.00250946
-9.44611e-06
3.082e-08
-8.79034e-06
-2.14677e-09
0.00248936
1.23346e-05
6.64856e-07
0.00248672
4.20548e-06
5.53319e-07
0.0024874
-1.32414e-06
5.24244e-07
0.00248949
-5.44665e-06
6.28636e-07
0.00249227
-9.08392e-06
7.91255e-07
0.00249522
-1.19163e-05
8.83065e-07
0.00249797
-1.37628e-05
8.91301e-07
0.00250031
-1.47264e-05
8.43018e-07
0.00250209
-1.4985e-05
7.56315e-07
0.00250326
-1.4717e-05
6.47638e-07
0.00250384
-1.4095e-05
5.32988e-07
0.00250389
-1.32701e-05
4.23474e-07
0.00250348
-1.23577e-05
3.24861e-07
0.00250272
-1.14375e-05
2.3932e-07
0.0025017
-1.05652e-05
1.67051e-07
0.00250049
-9.77655e-06
1.06712e-07
0.00249921
-9.11437e-06
5.65707e-08
0.00249793
-8.5856e-06
1.88505e-08
0.00249686
-8.37305e-06
-6.30553e-09
-7.98038e-06
-2.37497e-08
0.00249497
1.57098e-05
1.65973e-06
0.00248846
9.41785e-06
1.29066e-06
0.00248625
-3.76739e-07
1.26116e-06
0.0024886
-9.58335e-06
1.79343e-06
0.00249303
-1.58908e-05
2.37286e-06
0.00249721
-1.86805e-05
2.58903e-06
0.00249992
-1.89239e-05
2.45141e-06
0.00250088
-1.77976e-05
2.10255e-06
0.00250027
-1.60433e-05
1.66871e-06
0.0024984
-1.40759e-05
1.23604e-06
0.0024956
-1.21485e-05
8.53655e-07
0.00249219
-1.04068e-05
5.41856e-07
0.00248844
-8.91341e-06
3.02446e-07
0.00248456
-7.67809e-06
1.27631e-07
0.00248067
-6.68863e-06
6.95498e-09
0.0024769
-5.93098e-06
-7.36988e-08
0.00247334
-5.42631e-06
-1.28398e-07
0.00247009
-5.17368e-06
-1.55394e-07
0.00246734
-5.46912e-06
-1.62255e-07
-5.82674e-06
-1.09182e-07
0.00251454
1.16529e-06
0.0025236
3.62104e-07
0.00252295
2.75601e-07
0.00251313
2.37241e-07
0.00249746
-2.23047e-07
0.00247949
-7.1125e-07
0.00246159
-1.02559e-06
0.00244496
-1.16896e-06
0.00243011
-1.18959e-06
0.00241716
-1.12904e-06
0.00240604
-1.02304e-06
0.00239653
-9.00912e-07
0.0023884
-7.82267e-07
0.0023814
-6.77429e-07
0.0023753
-5.90171e-07
0.00236989
-5.19582e-07
0.00236493
-4.65775e-07
0.00236016
-4.07822e-07
0.00235505
-3.57824e-07
-1.6127e-07
0.00251907
-1.81969e-05
2.93928e-07
0.00253091
-1.25263e-05
1.04817e-06
0.0025338
-3.90477e-06
1.29108e-06
0.00252885
3.91337e-06
1.27513e-06
0.00251787
9.67748e-06
1.07917e-06
0.00250358
1.27784e-05
8.01347e-07
0.00248808
1.39332e-05
5.33611e-07
0.00247257
1.4038e-05
3.08121e-07
0.00245767
1.35727e-05
1.32657e-07
0.00244378
1.27557e-05
1.01624e-08
0.00243109
1.17344e-05
-6.49856e-08
0.00241966
1.06296e-05
-1.06332e-07
0.00240948
9.5309e-06
-1.2884e-07
0.00240044
8.50036e-06
-1.44534e-07
0.00239243
7.58462e-06
-1.62069e-07
0.00238528
6.8165e-06
-1.84655e-07
0.00237877
6.25533e-06
-2.1221e-07
0.00237268
5.91722e-06
-2.29522e-07
0.00236638
6.16325e-06
-2.25745e-07
6.37303e-06
-1.44468e-07
0.00249565
-1.28463e-05
6.54592e-07
0.00248975
-6.14898e-06
8.12948e-07
0.00248706
-8.88041e-07
9.35646e-07
0.00248882
2.80579e-06
1.14008e-06
0.00249371
5.73731e-06
1.42312e-06
0.00249927
8.10029e-06
1.71581e-06
0.00250379
9.91315e-06
1.95145e-06
0.00250661
1.12315e-05
2.08771e-06
0.00250765
1.20948e-05
2.10861e-06
0.00250708
1.25322e-05
2.02277e-06
0.00250522
1.25973e-05
1.85388e-06
0.00250239
1.23683e-05
1.6302e-06
0.00249892
1.19299e-05
1.37829e-06
0.00249506
1.13609e-05
1.11988e-06
0.00249106
1.07308e-05
8.69804e-07
0.00248706
1.00979e-05
6.39284e-07
0.00248322
9.53099e-06
4.34794e-07
0.00247968
9.04099e-06
2.60496e-07
0.00247672
8.84508e-06
1.1913e-07
8.3588e-06
-5.98877e-09
0.00248995
-2.45111e-06
3.1962e-07
0.00248697
-3.00154e-06
3.86365e-07
0.00248757
-1.43022e-06
4.70566e-07
0.00248991
5.37084e-07
5.55156e-07
0.002493
2.79436e-06
6.36978e-07
0.00249623
5.04945e-06
7.07086e-07
0.00249925
7.02375e-06
7.61844e-07
0.00250189
8.63378e-06
8.05382e-07
0.00250403
9.87792e-06
8.32586e-07
0.00250561
1.07645e-05
8.35531e-07
0.00250661
1.13171e-05
8.11231e-07
0.00250706
1.1579e-05
7.6109e-07
0.00250702
1.16048e-05
6.89286e-07
0.00250657
1.14508e-05
6.01741e-07
0.00250579
1.11708e-05
5.04632e-07
0.00250478
1.08125e-05
4.03746e-07
0.00250364
1.04254e-05
3.03735e-07
0.00250247
1.00223e-05
2.07156e-07
0.00250149
9.6961e-06
1.20054e-07
9.01342e-06
1.89038e-08
0.00249875
-8.53549e-07
4.0793e-07
0.00249721
-1.27893e-06
5.82417e-07
0.00249602
-1.03705e-07
6.78045e-07
0.00249531
1.40204e-06
7.54556e-07
0.00249534
2.88617e-06
8.32771e-07
0.00249615
4.31569e-06
8.99913e-07
0.00249754
5.63024e-06
9.43112e-07
0.00249929
6.79557e-06
9.60767e-07
0.00250119
7.7982e-06
9.52132e-07
0.00250309
8.62055e-06
9.17813e-07
0.00250486
9.24991e-06
8.61608e-07
0.00250642
9.68873e-06
7.88477e-07
0.00250774
9.95262e-06
7.03234e-07
0.0025088
1.00649e-05
6.10404e-07
0.00250963
1.00524e-05
5.13911e-07
0.00251024
9.94147e-06
4.16784e-07
0.00251069
9.75873e-06
3.21339e-07
0.00251104
9.50883e-06
2.27601e-07
0.0025114
9.22444e-06
1.39912e-07
8.62727e-06
4.37059e-08
0.00249961
-2.1113e-07
3.88648e-07
0.00249851
-1.92649e-07
5.36723e-07
0.00249776
5.36067e-07
6.03886e-07
0.00249752
1.51737e-06
6.4633e-07
0.00249774
2.53853e-06
6.77149e-07
0.00249835
3.57231e-06
6.9888e-07
0.00249928
4.563e-06
7.10928e-07
0.00250046
5.46079e-06
7.13734e-07
0.00250183
6.24689e-06
7.06622e-07
0.00250333
6.91326e-06
6.87872e-07
0.00250489
7.45487e-06
6.56771e-07
0.00250647
7.87241e-06
6.13885e-07
0.00250801
8.17233e-06
5.60648e-07
0.00250947
8.36465e-06
4.99083e-07
0.00251085
8.46128e-06
4.31455e-07
0.00251212
8.4736e-06
3.59763e-07
0.0025133
8.41229e-06
2.85933e-07
0.00251441
8.27501e-06
2.09846e-07
0.00251548
8.06887e-06
1.36131e-07
7.63336e-06
6.35559e-08
0.00249996
1.66133e-08
3.68406e-07
0.00249949
1.89644e-07
5.18431e-07
0.00249918
6.94861e-07
5.87844e-07
0.00249914
1.40484e-06
6.30979e-07
0.00249935
2.17303e-06
6.64175e-07
0.00249981
2.94216e-06
6.88353e-07
0.00250051
3.6727e-06
6.99493e-07
0.00250144
4.3345e-06
6.9654e-07
0.00250256
4.91647e-06
6.8084e-07
0.00250384
5.41648e-06
6.53753e-07
0.00250523
5.83407e-06
6.16739e-07
0.0025067
6.17075e-06
5.71437e-07
0.00250822
6.43021e-06
5.19404e-07
0.00250976
6.61735e-06
4.62072e-07
0.0025113
6.73729e-06
4.008e-07
0.00251281
6.79415e-06
3.36666e-07
0.00251429
6.79071e-06
2.70867e-07
0.00251573
6.72227e-06
2.0281e-07
0.00251714
6.58735e-06
1.36454e-07
6.30178e-06
8.09051e-08
0.00250009
7.92472e-08
3.47522e-07
0.00249988
2.87148e-07
4.9125e-07
0.00249973
6.54457e-07
5.53736e-07
0.00249979
1.15018e-06
5.87743e-07
0.00250008
1.69329e-06
6.10838e-07
0.00250058
2.23929e-06
6.25283e-07
0.00250128
2.76194e-06
6.29571e-07
0.00250216
3.23972e-06
6.23472e-07
0.0025032
3.6614e-06
6.07909e-07
0.00250438
4.02414e-06
5.83719e-07
0.00250567
4.32854e-06
5.51738e-07
0.00250705
4.57701e-06
5.12973e-07
0.00250851
4.77309e-06
4.68462e-07
0.00251002
4.92052e-06
4.19201e-07
0.00251157
5.02239e-06
3.66184e-07
0.00251314
5.08047e-06
3.10206e-07
0.00251471
5.09497e-06
2.52287e-07
0.00251627
5.06181e-06
1.91861e-07
0.00251782
4.97806e-06
1.3253e-07
4.80331e-06
9.06033e-08
0.00250014
7.45328e-08
3.30506e-07
0.00250005
2.44162e-07
4.68423e-07
0.00250001
4.88398e-07
5.26985e-07
0.00250015
8.03855e-07
5.57497e-07
0.00250049
1.15222e-06
5.78098e-07
0.00250101
1.50507e-06
5.9127e-07
0.00250171
1.84462e-06
5.95477e-07
0.00250257
2.15665e-06
5.89911e-07
0.00250358
2.43276e-06
5.75057e-07
0.00250472
2.67034e-06
5.51839e-07
0.00250597
2.86983e-06
5.21296e-07
0.00250731
3.03315e-06
4.84537e-07
0.00250873
3.16298e-06
4.42632e-07
0.00251021
3.26201e-06
3.96538e-07
0.00251174
3.33234e-06
3.47144e-07
0.00251331
3.37499e-06
2.95126e-07
0.0025149
3.38974e-06
2.41385e-07
0.0025165
3.3741e-06
1.85353e-07
0.0025181
3.32597e-06
1.30267e-07
3.22788e-06
9.63582e-08
0.00250016
4.2403e-08
3.18823e-07
0.00250012
1.3524e-07
4.52455e-07
0.00250014
2.57897e-07
5.08246e-07
0.00250032
4.11888e-07
5.36226e-07
0.00250068
5.82261e-07
5.54519e-07
0.00250122
7.55473e-07
5.65756e-07
0.00250192
9.22679e-07
5.68735e-07
0.00250278
1.07699e-06
5.62847e-07
0.00250378
1.214e-06
5.48507e-07
0.0025049
1.33206e-06
5.26517e-07
0.00250613
1.43123e-06
4.97761e-07
0.00250746
1.51243e-06
4.63186e-07
0.00250886
1.57703e-06
4.23733e-07
0.00251032
1.62646e-06
3.80275e-07
0.00251184
1.66185e-06
3.33635e-07
0.0025134
1.68374e-06
2.84445e-07
0.00251499
1.69205e-06
2.33574e-07
0.0025166
1.68567e-06
1.80484e-07
0.00251821
1.66366e-06
1.28223e-07
1.61981e-06
9.89453e-08
0.00250016
-1.50495e-12
3.12934e-07
0.00250015
-4.4374e-12
4.44344e-07
0.00250019
-7.10665e-12
4.98733e-07
0.00250039
-9.43352e-12
5.25525e-07
0.00250076
-1.1498e-11
5.42848e-07
0.0025013
-1.33857e-11
5.53437e-07
0.00250201
-1.51088e-11
5.56201e-07
0.00250286
-1.66031e-11
5.50526e-07
0.00250386
-1.77684e-11
5.36695e-07
0.00250498
-1.84887e-11
5.15411e-07
0.0025062
-1.86366e-11
4.87507e-07
0.00250752
-1.80871e-11
4.53889e-07
0.00250892
-1.67382e-11
4.15477e-07
0.00251038
-1.45209e-11
3.73128e-07
0.00251189
-1.1415e-11
3.27657e-07
0.00251344
-7.49241e-12
2.79687e-07
0.00251503
-2.96714e-12
2.30077e-07
0.00251663
1.78288e-12
1.78301e-07
0.00251825
6.31645e-12
1.27315e-07
1.01658e-11
9.99944e-08
0.00250016
-4.2406e-08
3.12934e-07
0.00250015
-1.35249e-07
4.44344e-07
0.00250019
-2.57911e-07
4.98733e-07
0.00250039
-4.11907e-07
5.25525e-07
0.00250076
-5.82284e-07
5.42848e-07
0.0025013
-7.55499e-07
5.53437e-07
0.00250201
-9.22709e-07
5.56201e-07
0.00250286
-1.07702e-06
5.50526e-07
0.00250386
-1.21403e-06
5.36695e-07
0.00250498
-1.3321e-06
5.15411e-07
0.0025062
-1.43127e-06
4.87507e-07
0.00250752
-1.51247e-06
4.53889e-07
0.00250892
-1.57706e-06
4.15477e-07
0.00251038
-1.62649e-06
3.73128e-07
0.00251189
-1.66187e-06
3.27657e-07
0.00251344
-1.68376e-06
2.79687e-07
0.00251503
-1.69205e-06
2.30077e-07
0.00251663
-1.68567e-06
1.78301e-07
0.00251825
-1.66365e-06
1.27316e-07
-1.61979e-06
9.99945e-08
0.00250016
-7.45357e-08
3.18823e-07
0.00250012
-2.44171e-07
4.52454e-07
0.00250014
-4.88412e-07
5.08246e-07
0.00250032
-8.03873e-07
5.36226e-07
0.00250068
-1.15225e-06
5.54519e-07
0.00250122
-1.50509e-06
5.65756e-07
0.00250192
-1.84465e-06
5.68735e-07
0.00250278
-2.15669e-06
5.62847e-07
0.00250378
-2.4328e-06
5.48507e-07
0.0025049
-2.67038e-06
5.26517e-07
0.00250613
-2.86987e-06
4.97761e-07
0.00250746
-3.03319e-06
4.63186e-07
0.00250886
-3.16301e-06
4.23733e-07
0.00251032
-3.26204e-06
3.80275e-07
0.00251184
-3.33236e-06
3.33635e-07
0.0025134
-3.375e-06
2.84445e-07
0.00251499
-3.38975e-06
2.33574e-07
0.0025166
-3.37409e-06
1.80484e-07
0.00251821
-3.32596e-06
1.28223e-07
-3.22786e-06
9.89453e-08
0.00250014
-7.925e-08
3.30506e-07
0.00250005
-2.87156e-07
4.68423e-07
0.00250001
-6.5447e-07
5.26985e-07
0.00250015
-1.15019e-06
5.57497e-07
0.00250049
-1.69331e-06
5.78097e-07
0.00250101
-2.23931e-06
5.9127e-07
0.00250171
-2.76197e-06
5.95477e-07
0.00250257
-3.23975e-06
5.89911e-07
0.00250358
-3.66143e-06
5.75057e-07
0.00250472
-4.02417e-06
5.51839e-07
0.00250597
-4.32857e-06
5.21296e-07
0.00250731
-4.57704e-06
4.84537e-07
0.00250873
-4.77312e-06
4.42632e-07
0.00251021
-4.92054e-06
3.96538e-07
0.00251174
-5.02241e-06
3.47144e-07
0.00251331
-5.08049e-06
2.95126e-07
0.0025149
-5.09498e-06
2.41385e-07
0.0025165
-5.06181e-06
1.85353e-07
0.0025181
-4.97805e-06
1.30267e-07
-4.80329e-06
9.63582e-08
0.00250009
-1.66159e-08
3.47521e-07
0.00249988
-1.89652e-07
4.9125e-07
0.00249973
-6.94873e-07
5.53735e-07
0.00249979
-1.40486e-06
5.87742e-07
0.00250008
-2.17305e-06
6.10837e-07
0.00250058
-2.94218e-06
6.25283e-07
0.00250128
-3.67273e-06
6.29571e-07
0.00250216
-4.33452e-06
6.23471e-07
0.0025032
-4.9165e-06
6.07909e-07
0.00250438
-5.41651e-06
5.83718e-07
0.00250567
-5.8341e-06
5.51737e-07
0.00250705
-6.17078e-06
5.12973e-07
0.00250851
-6.43024e-06
4.68462e-07
0.00251002
-6.61737e-06
4.19201e-07
0.00251157
-6.73731e-06
3.66184e-07
0.00251314
-6.79417e-06
3.10206e-07
0.00251471
-6.79071e-06
2.52287e-07
0.00251627
-6.72226e-06
1.91861e-07
0.00251782
-6.58734e-06
1.3253e-07
-6.30176e-06
9.06034e-08
0.00249996
2.11127e-07
3.68405e-07
0.00249949
1.92643e-07
5.1843e-07
0.00249918
-5.36078e-07
5.87844e-07
0.00249914
-1.51739e-06
6.30979e-07
0.00249935
-2.53855e-06
6.64174e-07
0.00249981
-3.57233e-06
6.88353e-07
0.00250051
-4.56302e-06
6.99492e-07
0.00250144
-5.46081e-06
6.9654e-07
0.00250256
-6.24692e-06
6.8084e-07
0.00250384
-6.91329e-06
6.53753e-07
0.00250523
-7.4549e-06
6.16739e-07
0.0025067
-7.87244e-06
5.71437e-07
0.00250822
-8.17236e-06
5.19404e-07
0.00250976
-8.36468e-06
4.62072e-07
0.0025113
-8.46129e-06
4.008e-07
0.00251281
-8.47361e-06
3.36666e-07
0.00251429
-8.41229e-06
2.70867e-07
0.00251573
-8.27501e-06
2.0281e-07
0.00251714
-8.06886e-06
1.36454e-07
-7.63334e-06
8.0905e-08
0.00249961
8.53547e-07
3.88648e-07
0.00249851
1.27893e-06
5.36723e-07
0.00249776
1.03695e-07
6.03885e-07
0.00249752
-1.40205e-06
6.46329e-07
0.00249774
-2.88618e-06
6.77148e-07
0.00249835
-4.31571e-06
6.98879e-07
0.00249928
-5.63026e-06
7.10928e-07
0.00250046
-6.7956e-06
7.13733e-07
0.00250183
-7.79823e-06
7.06622e-07
0.00250333
-8.62057e-06
6.87872e-07
0.00250489
-9.24994e-06
6.5677e-07
0.00250647
-9.68875e-06
6.13885e-07
0.00250801
-9.95265e-06
5.60648e-07
0.00250947
-1.00649e-05
4.99083e-07
0.00251085
-1.00524e-05
4.31456e-07
0.00251212
-9.94148e-06
3.59763e-07
0.0025133
-9.75873e-06
2.85933e-07
0.00251441
-9.50882e-06
2.09846e-07
0.00251548
-9.22443e-06
1.36131e-07
-8.62724e-06
6.35557e-08
0.00249875
2.45111e-06
4.07929e-07
0.00249721
3.00154e-06
5.82416e-07
0.00249602
1.43021e-06
6.78044e-07
0.00249531
-5.37094e-07
7.54555e-07
0.00249534
-2.79437e-06
8.3277e-07
0.00249615
-5.04946e-06
8.99912e-07
0.00249754
-7.02377e-06
9.43111e-07
0.00249929
-8.6338e-06
9.60766e-07
0.00250119
-9.87794e-06
9.52132e-07
0.00250309
-1.07646e-05
9.17812e-07
0.00250486
-1.13171e-05
8.61608e-07
0.00250642
-1.1579e-05
7.88476e-07
0.00250774
-1.16048e-05
7.03234e-07
0.0025088
-1.14508e-05
6.10404e-07
0.00250963
-1.11708e-05
5.13912e-07
0.00251024
-1.08126e-05
4.16784e-07
0.00251069
-1.04254e-05
3.21339e-07
0.00251104
-1.00223e-05
2.27602e-07
0.0025114
-9.69608e-06
1.39912e-07
-9.01338e-06
4.37056e-08
0.00248995
1.28463e-05
3.1962e-07
0.00248697
6.14897e-06
3.86364e-07
0.00248757
8.88034e-07
4.70565e-07
0.00248991
-2.8058e-06
5.55155e-07
0.002493
-5.73732e-06
6.36977e-07
0.00249623
-8.1003e-06
7.07085e-07
0.00249925
-9.91316e-06
7.61843e-07
0.00250189
-1.12315e-05
8.05381e-07
0.00250403
-1.20948e-05
8.32585e-07
0.00250561
-1.25322e-05
8.3553e-07
0.00250661
-1.25973e-05
8.1123e-07
0.00250706
-1.23683e-05
7.6109e-07
0.00250702
-1.19299e-05
6.89286e-07
0.00250657
-1.13609e-05
6.01742e-07
0.00250579
-1.07308e-05
5.04633e-07
0.00250478
-1.00979e-05
4.03747e-07
0.00250364
-9.53099e-06
3.03736e-07
0.00250247
-9.04098e-06
2.07157e-07
0.00250149
-8.84505e-06
1.20054e-07
-8.35874e-06
1.89031e-08
0.00249565
1.81969e-05
6.54591e-07
0.00248975
1.25263e-05
8.12947e-07
0.00248706
3.90476e-06
9.35645e-07
0.00248882
-3.91338e-06
1.14008e-06
0.00249371
-9.67748e-06
1.42312e-06
0.00249927
-1.27784e-05
1.71581e-06
0.00250379
-1.39332e-05
1.95145e-06
0.00250661
-1.4038e-05
2.08771e-06
0.00250765
-1.35727e-05
2.10861e-06
0.00250708
-1.27557e-05
2.02277e-06
0.00250522
-1.17344e-05
1.85388e-06
0.00250239
-1.06296e-05
1.6302e-06
0.00249892
-9.53091e-06
1.37829e-06
0.00249506
-8.50037e-06
1.11988e-06
0.00249106
-7.58462e-06
8.69806e-07
0.00248706
-6.8165e-06
6.39287e-07
0.00248322
-6.25533e-06
4.34796e-07
0.00247968
-5.91721e-06
2.60496e-07
0.00247672
-6.1632e-06
1.19128e-07
-6.37293e-06
-5.99019e-09
0.00251907
2.93927e-07
0.00253091
1.04817e-06
0.0025338
1.29108e-06
0.00252885
1.27513e-06
0.00251787
1.07917e-06
0.00250358
8.01345e-07
0.00248808
5.33609e-07
0.00247257
3.08119e-07
0.00245767
1.32655e-07
0.00244378
1.01601e-08
0.00243109
-6.49873e-08
0.00241966
-1.06333e-07
0.00240948
-1.28841e-07
0.00240044
-1.44534e-07
0.00239243
-1.62067e-07
0.00238528
-1.84649e-07
0.00237877
-2.12201e-07
0.00237268
-2.29516e-07
0.00236638
-2.25742e-07
-1.44465e-07
0.00251728
-1.75816e-05
5.97648e-07
0.00252933
-1.19879e-05
9.79777e-07
0.00253325
-3.69584e-06
1.07539e-06
0.00252971
3.7567e-06
1.05343e-06
0.00252062
9.19253e-06
9.78642e-07
0.00250857
1.19544e-05
8.94452e-07
0.00249553
1.27603e-05
8.16442e-07
0.00248251
1.25875e-05
7.40725e-07
0.00246999
1.19911e-05
6.6207e-07
0.0024582
1.1214e-05
5.80642e-07
0.00244726
1.0383e-05
4.97805e-07
0.00243716
9.57286e-06
4.13566e-07
0.00242789
8.81937e-06
3.27495e-07
0.00241937
8.13472e-06
2.39558e-07
0.00241153
7.5275e-06
1.49925e-07
0.00240428
7.00631e-06
5.95468e-08
0.00239747
6.62413e-06
-2.71497e-08
0.00239097
6.37788e-06
-1.05394e-07
0.0023842
6.6724e-06
-1.26775e-07
6.75814e-06
-1.87757e-07
0.00249524
-1.27008e-05
5.35308e-07
0.00248912
-5.75202e-06
6.96018e-07
0.0024862
-6.43413e-07
8.03835e-07
0.00248749
2.71414e-06
8.94721e-07
0.00249193
5.1953e-06
9.78578e-07
0.00249748
7.05747e-06
1.05954e-06
0.00250266
8.39578e-06
1.13901e-06
0.00250677
9.34894e-06
1.21418e-06
0.00250957
1.00174e-05
1.27895e-06
0.00251104
1.04483e-05
1.32695e-06
0.00251125
1.06745e-05
1.35259e-06
0.00251037
1.07291e-05
1.35134e-06
0.0025086
1.06436e-05
1.32056e-06
0.00250615
1.04466e-05
1.25989e-06
0.00250321
1.01688e-05
1.1706e-06
0.00249996
9.83883e-06
1.05533e-06
0.00249659
9.51236e-06
9.16999e-07
0.0024933
9.17789e-06
7.52064e-07
0.00249044
9.08613e-06
5.63799e-07
8.54837e-06
2.54824e-07
0.00248962
-2.417e-06
4.15599e-07
0.00248664
-2.8731e-06
4.89202e-07
0.00248723
-1.29942e-06
5.309e-07
0.00248951
4.35647e-07
5.618e-07
0.00249251
2.2462e-06
5.84428e-07
0.0024957
3.97173e-06
6.04401e-07
0.00249878
5.4455e-06
6.23377e-07
0.00250164
6.65928e-06
6.42311e-07
0.00250417
7.65961e-06
6.60432e-07
0.0025063
8.47113e-06
6.75495e-07
0.002508
9.10392e-06
6.85014e-07
0.00250924
9.56892e-06
6.86026e-07
0.00251001
9.87958e-06
6.75198e-07
0.00251036
1.0051e-05
6.49706e-07
0.00251033
1.01022e-05
6.07718e-07
0.00250997
1.00531e-05
5.4828e-07
0.00250938
9.93663e-06
4.71364e-07
0.00250864
9.7471e-06
3.73174e-07
0.00250799
9.59911e-06
2.5967e-07