/*--------------------------------*- C++ -*----------------------------------*\
  =========                 |
  \\      /  F ield         | OpenFOAM: The Open Source CFD Toolbox
   \\    /   O peration     | Website:  https://openfoam.org
    \\  /    A nd           | Version:  9
     \\/     M anipulation  |
\*---------------------------------------------------------------------------*/
FoamFile
{
    format      ascii;
    class       volVectorField;
    location    "200";
    object      U;
}
// * * * * * * * * * * * * * * * * * * * * * * * * * * * * * * * * * * * * * //

dimensions      [0 1 -1 0 0 0 0];

internalField   nonuniform List<vector> 
8000
(
(0.998907 -0.0550128 -0.0290344)
(1.00688 -0.0530299 -0.0254796)
(1.01122 -0.0342657 -0.0169318)
(1.00859 -0.0177035 -0.0128473)
(1.0025 -0.00599616 -0.010387)
(0.995397 0.00124797 -0.00824761)
(0.988154 0.00511519 -0.00650997)
(0.981193 0.0067547 -0.00524444)
(0.974847 0.00707212 -0.00430834)
(0.969275 0.00668151 -0.00356908)
(0.964476 0.00597157 -0.0029644)
(0.960372 0.00517449 -0.00245871)
(0.956867 0.00441619 -0.00202049)
(0.953861 0.00375438 -0.00162485)
(0.951262 0.00320802 -0.0012572)
(0.948975 0.002777 -0.00090946)
(0.94694 0.00246364 -0.000589343)
(0.944946 0.00225707 -0.000287499)
(0.943331 0.00223722 -0.000121379)
(0.940193 0.00224118 0.00024282)
(0.999572 0.0107655 0.00291336)
(0.996682 0.0188139 0.00179878)
(0.994486 0.018032 -2.86019e-05)
(0.994633 0.0151507 -0.00141333)
(0.996235 0.0126519 -0.00226901)
(0.998131 0.0106826 -0.00273192)
(0.999582 0.00910067 -0.00294013)
(1.00032 0.00784117 -0.00298242)
(1.00036 0.00683127 -0.00290324)
(0.999834 0.00599557 -0.00273629)
(0.998868 0.00528587 -0.00251472)
(0.9976 0.00467784 -0.00226408)
(0.996148 0.00415741 -0.00200015)
(0.994605 0.00371431 -0.0017322)
(0.993041 0.00334233 -0.00146614)
(0.991498 0.00303891 -0.00120439)
(0.990028 0.00281598 -0.000950363)
(0.988633 0.00267464 -0.000694609)
(0.987507 0.00272846 -0.000463989)
(0.986215 0.00276214 -0.000122862)
(0.998182 -0.00310074 -0.00223772)
(0.994923 -0.00580836 -0.00446128)
(0.994317 -0.00536417 -0.00503074)
(0.995194 -0.00325095 -0.00463437)
(0.996332 -0.000744053 -0.00415245)
(0.997502 0.00145954 -0.00373426)
(0.998663 0.00313573 -0.00333778)
(0.999705 0.00429029 -0.00296948)
(1.00054 0.00499945 -0.00263949)
(1.00113 0.00535607 -0.00234209)
(1.00148 0.0054537 -0.00206975)
(1.0016 0.00537535 -0.00181761)
(1.00152 0.005187 -0.00158162)
(1.00127 0.00493764 -0.00135806)
(1.00091 0.00466301 -0.00114411)
(1.00045 0.00438787 -0.000937088)
(0.999946 0.00413325 -0.000735683)
(0.999416 0.00390654 -0.000533493)
(0.998956 0.00374835 -0.000338384)
(0.998469 0.00349236 -0.000108634)
(0.999672 -0.000638631 -0.00278323)
(0.998565 -2.87329e-05 -0.00314228)
(0.997734 0.00122374 -0.00303903)
(0.997342 0.0021879 -0.00283649)
(0.997292 0.00289244 -0.002695)
(0.997593 0.00347528 -0.00257875)
(0.998194 0.00395607 -0.00243809)
(0.998967 0.00432851 -0.00227735)
(0.999799 0.00459428 -0.00210836)
(1.00061 0.0047586 -0.00193349)
(1.00135 0.0048307 -0.00175389)
(1.00199 0.00482457 -0.00157211)
(1.00252 0.00475644 -0.00139018)
(1.00293 0.00464241 -0.00120909)
(1.00323 0.00449742 -0.00102926)
(1.00344 0.00433407 -0.000850452)
(1.00358 0.00416401 -0.000672166)
(1.00367 0.00398997 -0.000492009)
(1.00374 0.00382552 -0.000308746)
(1.00384 0.00355675 -0.0001367)
(0.999788 -0.000110943 -0.00287211)
(0.999258 -1.59063e-05 -0.00308316)
(0.998735 0.000325966 -0.00305142)
(0.99847 0.000766638 -0.00294929)
(0.998454 0.0012971 -0.00279345)
(0.99864 0.00187701 -0.00261732)
(0.999004 0.00242884 -0.0024278)
(0.999509 0.0029047 -0.00223212)
(1.00011 0.00328947 -0.00203765)
(1.00077 0.00358159 -0.00184686)
(1.00146 0.00378608 -0.00166016)
(1.00214 0.00391277 -0.00147792)
(1.00279 0.00397379 -0.00130014)
(1.0034 0.0039814 -0.00112635)
(1.00396 0.00394696 -0.000955854)
(1.00447 0.00387996 -0.000787828)
(1.00494 0.00378814 -0.000621145)
(1.00536 0.00367252 -0.000455087)
(1.00574 0.00353576 -0.000284624)
(1.00622 0.00331081 -0.000155954)
(0.999828 1.46186e-05 -0.00288363)
(0.99957 0.000155401 -0.0030253)
(0.999316 0.00047722 -0.00289619)
(0.999189 0.000887383 -0.00274303)
(0.999206 0.00131029 -0.00257213)
(0.999347 0.00171507 -0.00240366)
(0.999613 0.00208103 -0.00223609)
(0.999995 0.00239637 -0.00206603)
(1.00047 0.00265843 -0.00189502)
(1.00102 0.00286812 -0.0017247)
(1.00163 0.0030278 -0.0015557)
(1.00226 0.0031414 -0.00138858)
(1.00291 0.00321383 -0.00122373)
(1.00356 0.00325024 -0.00106127)
(1.00421 0.00325546 -0.00090102)
(1.00483 0.00323342 -0.000742714)
(1.00544 0.00318689 -0.000585624)
(1.00602 0.00311468 -0.000430436)
(1.00656 0.0030156 -0.0002707)
(1.00725 0.00285432 -0.000169877)
(0.999849 5.04615e-05 -0.00285863)
(0.999709 0.000194022 -0.00297021)
(0.999582 0.000420772 -0.00280493)
(0.999535 0.000696466 -0.00264475)
(0.999595 0.000983246 -0.00248264)
(0.999756 0.00126617 -0.002322)
(1.00001 0.00153297 -0.00216063)
(1.00036 0.00177179 -0.00199667)
(1.00079 0.00197637 -0.0018314)
(1.00128 0.00214509 -0.0016664)
(1.00183 0.00227879 -0.00150252)
(1.00242 0.00237982 -0.00134036)
(1.00304 0.0024513 -0.00118036)
(1.00368 0.00249644 -0.00102272)
(1.00433 0.00251804 -0.00086741)
(1.00498 0.00251811 -0.000714362)
(1.00563 0.00249768 -0.00056303)
(1.00628 0.00245536 -0.000414789)
(1.00689 0.00238969 -0.000262471)
(1.00767 0.0022842 -0.000178185)
(0.99986 5.03743e-05 -0.00282553)
(0.999775 0.000168182 -0.00292408)
(0.999716 0.000325012 -0.00274211)
(0.999719 0.000512283 -0.00257344)
(0.99981 0.000710015 -0.00241045)
(0.999985 0.000905583 -0.0022515)
(1.00024 0.00108963 -0.00209401)
(1.00058 0.00125443 -0.00193596)
(1.00099 0.00139598 -0.00177729)
(1.00145 0.00151344 -0.00161864)
(1.00197 0.00160765 -0.00146062)
(1.00253 0.00168029 -0.00130375)
(1.00313 0.00173349 -0.00114848)
(1.00375 0.00176929 -0.000995156)
(1.0044 0.00178939 -0.000843913)
(1.00505 0.00179479 -0.000694918)
(1.00572 0.00178578 -0.000547833)
(1.00638 0.00176133 -0.000404449)
(1.00701 0.00172043 -0.000257288)
(1.00785 0.00165641 -0.000182493)
(0.999865 3.42802e-05 -0.0027989)
(0.999807 0.000109796 -0.00289168)
(0.999782 0.000202583 -0.0027024)
(0.999813 0.000310986 -0.00252921)
(0.999919 0.000425516 -0.00236623)
(1.0001 0.000538923 -0.00220946)
(1.00036 0.000646176 -0.00205512)
(1.0007 0.000743136 -0.00190083)
(1.00109 0.000827268 -0.00174602)
(1.00155 0.000897724 -0.001591)
(1.00206 0.000954733 -0.00143627)
(1.00261 0.000999159 -0.00128238)
(1.00319 0.00103219 -0.0011298)
(1.00381 0.00105501 -0.00097895)
(1.00444 0.0010686 -0.00083008)
(1.00509 0.00107354 -0.000683486)
(1.00575 0.00106995 -0.000538951)
(1.00643 0.00105731 -0.000398459)
(1.00706 0.00103516 -0.000254381)
(1.00792 0.00100131 -0.00018455)
(0.999868 1.19789e-05 -0.00278451)
(0.99982 3.78901e-05 -0.00287495)
(0.99981 6.87159e-05 -0.00268294)
(0.999852 0.000104297 -0.00250781)
(0.999966 0.000141912 -0.00234474)
(1.00015 0.000179251 -0.00218887)
(1.00041 0.000214681 -0.00203588)
(1.00075 0.000246829 -0.0018833)
(1.00114 0.000274803 -0.00173036)
(1.00159 0.000298267 -0.00157717)
(1.0021 0.000317278 -0.00142416)
(1.00264 0.000332119 -0.00127182)
(1.00322 0.000343187 -0.00112065)
(1.00383 0.000350886 -0.000971082)
(1.00446 0.000355543 -0.000823422)
(1.00511 0.000357353 -0.000678032)
(1.00577 0.00035636 -0.000534751)
(1.00644 0.000352411 -0.000395645)
(1.00708 0.000345385 -0.000253029)
(1.00794 0.000334821 -0.00018533)
(0.999868 -1.198e-05 -0.00278451)
(0.99982 -3.78934e-05 -0.00287495)
(0.99981 -6.87213e-05 -0.00268294)
(0.999852 -0.000104304 -0.00250781)
(0.999966 -0.00014192 -0.00234474)
(1.00015 -0.000179262 -0.00218887)
(1.00041 -0.000214693 -0.00203588)
(1.00075 -0.000246842 -0.0018833)
(1.00114 -0.000274817 -0.00173036)
(1.00159 -0.000298281 -0.00157717)
(1.0021 -0.000317293 -0.00142416)
(1.00264 -0.000332133 -0.00127182)
(1.00322 -0.0003432 -0.00112065)
(1.00383 -0.000350897 -0.000971081)
(1.00446 -0.000355551 -0.000823422)
(1.00511 -0.000357358 -0.000678032)
(1.00577 -0.000356361 -0.00053475)
(1.00644 -0.000352408 -0.000395645)
(1.00708 -0.000345379 -0.000253028)
(1.00794 -0.000334812 -0.00018533)
(0.999865 -3.42813e-05 -0.0027989)
(0.999807 -0.000109799 -0.00289168)
(0.999782 -0.000202588 -0.0027024)
(0.999813 -0.000310993 -0.00252921)
(0.999919 -0.000425524 -0.00236623)
(1.0001 -0.000538933 -0.00220946)
(1.00036 -0.000646188 -0.00205512)
(1.0007 -0.000743149 -0.00190083)
(1.00109 -0.000827282 -0.00174602)
(1.00155 -0.000897738 -0.001591)
(1.00206 -0.000954747 -0.00143627)
(1.00261 -0.000999173 -0.00128238)
(1.00319 -0.0010322 -0.0011298)
(1.00381 -0.00105502 -0.000978949)
(1.00444 -0.00106861 -0.000830079)
(1.00509 -0.00107354 -0.000683486)
(1.00575 -0.00106995 -0.00053895)
(1.00643 -0.0010573 -0.000398459)
(1.00706 -0.00103515 -0.000254381)
(1.00792 -0.0010013 -0.00018455)
(0.99986 -5.03754e-05 -0.00282553)
(0.999775 -0.000168185 -0.00292408)
(0.999716 -0.000325017 -0.00274211)
(0.999719 -0.00051229 -0.00257344)
(0.99981 -0.000710023 -0.00241045)
(0.999985 -0.000905592 -0.0022515)
(1.00024 -0.00108964 -0.00209401)
(1.00058 -0.00125444 -0.00193596)
(1.00099 -0.00139599 -0.00177729)
(1.00145 -0.00151346 -0.00161864)
(1.00197 -0.00160766 -0.00146062)
(1.00253 -0.00168031 -0.00130374)
(1.00313 -0.0017335 -0.00114848)
(1.00375 -0.0017693 -0.000995155)
(1.0044 -0.00178939 -0.000843912)
(1.00505 -0.00179479 -0.000694917)
(1.00572 -0.00178578 -0.000547832)
(1.00638 -0.00176132 -0.000404448)
(1.00701 -0.00172042 -0.000257288)
(1.00785 -0.0016564 -0.000182493)
(0.999849 -5.04625e-05 -0.00285864)
(0.999709 -0.000194025 -0.00297022)
(0.999582 -0.000420777 -0.00280493)
(0.999535 -0.000696472 -0.00264476)
(0.999595 -0.000983254 -0.00248264)
(0.999756 -0.00126618 -0.002322)
(1.00001 -0.00153298 -0.00216063)
(1.00036 -0.00177181 -0.00199667)
(1.00079 -0.00197638 -0.0018314)
(1.00128 -0.0021451 -0.0016664)
(1.00183 -0.0022788 -0.00150252)
(1.00242 -0.00237983 -0.00134036)
(1.00304 -0.00245131 -0.00118036)
(1.00368 -0.00249644 -0.00102272)
(1.00433 -0.00251804 -0.000867409)
(1.00498 -0.00251812 -0.00071436)
(1.00563 -0.00249768 -0.000563029)
(1.00628 -0.00245536 -0.000414788)
(1.00689 -0.00238968 -0.000262471)
(1.00767 -0.00228419 -0.000178185)
(0.999828 -1.46195e-05 -0.00288364)
(0.99957 -0.000155404 -0.00302531)
(0.999316 -0.000477225 -0.00289619)
(0.999189 -0.000887389 -0.00274303)
(0.999206 -0.0013103 -0.00257213)
(0.999347 -0.00171508 -0.00240366)
(0.999613 -0.00208104 -0.00223609)
(0.999995 -0.00239638 -0.00206603)
(1.00047 -0.00265845 -0.00189502)
(1.00102 -0.00286813 -0.00172469)
(1.00163 -0.00302781 -0.0015557)
(1.00226 -0.00314141 -0.00138858)
(1.00291 -0.00321384 -0.00122373)
(1.00356 -0.00325025 -0.00106127)
(1.00421 -0.00325547 -0.000901018)
(1.00483 -0.00323342 -0.000742713)
(1.00544 -0.00318689 -0.000585623)
(1.00602 -0.00311468 -0.000430435)
(1.00656 -0.00301559 -0.0002707)
(1.00725 -0.00285431 -0.000169877)
(0.999788 0.000110942 -0.00287212)
(0.999258 1.59039e-05 -0.00308316)
(0.998735 -0.00032597 -0.00305142)
(0.99847 -0.000766643 -0.00294929)
(0.998454 -0.0012971 -0.00279345)
(0.99864 -0.00187702 -0.00261732)
(0.999004 -0.00242885 -0.0024278)
(0.999509 -0.00290471 -0.00223212)
(1.00011 -0.00328948 -0.00203765)
(1.00077 -0.0035816 -0.00184686)
(1.00146 -0.00378609 -0.00166016)
(1.00214 -0.00391278 -0.00147792)
(1.00279 -0.0039738 -0.00130014)
(1.0034 -0.00398141 -0.00112635)
(1.00396 -0.00394696 -0.000955852)
(1.00447 -0.00387996 -0.000787827)
(1.00494 -0.00378815 -0.000621143)
(1.00536 -0.00367252 -0.000455085)
(1.00574 -0.00353575 -0.000284623)
(1.00622 -0.0033108 -0.000155953)
(0.999672 0.00063863 -0.00278324)
(0.998565 2.87307e-05 -0.00314228)
(0.997734 -0.00122374 -0.00303903)
(0.997342 -0.0021879 -0.00283649)
(0.997292 -0.00289245 -0.002695)
(0.997593 -0.00347528 -0.00257875)
(0.998194 -0.00395608 -0.00243809)
(0.998967 -0.00432852 -0.00227735)
(0.999799 -0.00459429 -0.00210836)
(1.00061 -0.0047586 -0.00193349)
(1.00135 -0.00483071 -0.00175389)
(1.00199 -0.00482457 -0.00157211)
(1.00252 -0.00475645 -0.00139017)
(1.00293 -0.00464242 -0.00120909)
(1.00323 -0.00449742 -0.00102925)
(1.00344 -0.00433407 -0.00085045)
(1.00358 -0.00416401 -0.000672164)
(1.00367 -0.00398996 -0.000492007)
(1.00374 -0.00382551 -0.000308744)
(1.00384 -0.00355674 -0.000136698)
(0.998182 0.00310074 -0.00223773)
(0.994923 0.00580836 -0.00446129)
(0.994317 0.00536416 -0.00503075)
(0.995194 0.00325095 -0.00463437)
(0.996332 0.000744049 -0.00415245)
(0.997502 -0.00145955 -0.00373426)
(0.998663 -0.00313574 -0.00333778)
(0.999705 -0.00429029 -0.00296948)
(1.00054 -0.00499946 -0.00263949)
(1.00113 -0.00535608 -0.00234209)
(1.00148 -0.00545371 -0.00206975)
(1.0016 -0.00537535 -0.00181761)
(1.00152 -0.00518701 -0.00158161)
(1.00127 -0.00493765 -0.00135806)
(1.00091 -0.00466302 -0.00114411)
(1.00045 -0.00438788 -0.000937086)
(0.999946 -0.00413325 -0.00073568)
(0.999416 -0.00390654 -0.000533491)
(0.998956 -0.00374834 -0.000338382)
(0.998469 -0.00349234 -0.000108632)
(0.999572 -0.0107655 0.00291335)
(0.996682 -0.0188139 0.00179877)
(0.994486 -0.018032 -2.86056e-05)
(0.994633 -0.0151507 -0.00141333)
(0.996235 -0.0126519 -0.00226901)
(0.998131 -0.0106826 -0.00273192)
(0.999582 -0.00910068 -0.00294013)
(1.00032 -0.00784118 -0.00298241)
(1.00036 -0.00683127 -0.00290324)
(0.999834 -0.00599558 -0.00273629)
(0.998868 -0.00528587 -0.00251472)
(0.9976 -0.00467785 -0.00226408)
(0.996148 -0.00415741 -0.00200014)
(0.994605 -0.00371432 -0.0017322)
(0.993041 -0.00334234 -0.00146613)
(0.991498 -0.00303892 -0.00120439)
(0.990028 -0.00281599 -0.000950359)
(0.988633 -0.00267464 -0.000694605)
(0.987507 -0.00272846 -0.000463983)
(0.986215 -0.00276212 -0.000122856)
(0.998907 0.0550128 -0.0290344)
(1.00688 0.0530299 -0.0254796)
(1.01122 0.0342657 -0.0169318)
(1.00859 0.0177035 -0.0128473)
(1.0025 0.00599616 -0.010387)
(0.995397 -0.00124797 -0.00824761)
(0.988154 -0.00511519 -0.00650997)
(0.981193 -0.0067547 -0.00524444)
(0.974847 -0.00707212 -0.00430833)
(0.969275 -0.00668151 -0.00356908)
(0.964476 -0.00597157 -0.00296439)
(0.960372 -0.00517449 -0.00245871)
(0.956867 -0.00441619 -0.00202048)
(0.953861 -0.00375438 -0.00162484)
(0.951262 -0.00320803 -0.00125719)
(0.948974 -0.002777 -0.000909458)
(0.94694 -0.00246364 -0.000589345)
(0.944946 -0.00225706 -0.000287506)
(0.94333 -0.00223717 -0.000121389)
(0.940193 -0.00224111 0.000242809)
(1.00064 -0.0555909 0.000289673)
(1.00923 -0.0561042 0.000281677)
(1.01449 -0.0402382 0.000312746)
(1.01392 -0.0257842 0.000301321)
(1.00984 -0.0147423 0.000168381)
(1.00442 -0.00689507 1.34212e-05)
(0.998397 -0.00166041 -0.000103942)
(0.992135 0.00162843 -0.000177808)
(0.985983 0.00354019 -0.000216534)
(0.980184 0.00450252 -0.000228151)
(0.974854 0.00483413 -0.000221158)
(0.970029 0.00477294 -0.000204256)
(0.965712 0.00449055 -0.000184391)
(0.961877 0.00410465 -0.000166019)
(0.958483 0.00369353 -0.000151589)
(0.955459 0.00330617 -0.000141536)
(0.952772 0.00298296 -0.000135868)
(0.950182 0.00273551 -0.000127381)
(0.948142 0.00268412 -0.000116447)
(0.944423 0.00258133 -6.06784e-05)
(0.999755 0.0100169 0.000453398)
(0.997224 0.0187471 0.000421128)
(0.994996 0.0193295 0.000444374)
(0.994681 0.0170519 0.000596662)
(0.996284 0.0143973 0.00077221)
(0.998622 0.0119436 0.000870797)
(1.00076 0.00985619 0.000882137)
(1.00226 0.0082171 0.0008298)
(1.00302 0.00698615 0.000738753)
(1.00309 0.00605688 0.000629422)
(1.00257 0.00533144 0.000516633)
(1.0016 0.00474373 0.000409637)
(1.00031 0.00425329 0.000313361)
(0.99882 0.00383673 0.000229843)
(0.997228 0.00348343 0.000159365)
(0.995612 0.00319026 0.000100868)
(0.994041 0.00297178 5.25154e-05)
(0.992521 0.00282542 1.53614e-05)
(0.991311 0.00287666 -1.16918e-05)
(0.989919 0.00289131 -2.31556e-05)
(0.998457 -0.00325636 0.000193076)
(0.995123 -0.00668522 0.000189207)
(0.994341 -0.00715297 0.000202588)
(0.995263 -0.00570102 0.000241184)
(0.996559 -0.00348424 0.000290025)
(0.997858 -0.00124891 0.000320692)
(0.999121 0.000680374 0.000330311)
(1.00027 0.00221 0.000325913)
(1.00124 0.0033376 0.000310736)
(1.00199 0.0041016 0.000287)
(1.0025 0.00456282 0.000257591)
(1.00279 0.00478861 0.000225054)
(1.00286 0.00484148 0.000191251)
(1.00276 0.0047746 0.000157591)
(1.0025 0.00463158 0.000125128)
(1.00213 0.00444685 9.45453e-05)
(1.00169 0.00425232 6.62654e-05)
(1.00121 0.00405921 4.11692e-05)
(1.00079 0.00392182 2.03474e-05)
(1.00034 0.00363515 -1.35314e-06)
(1.00002 -0.000676257 0.000229084)
(0.999207 -0.000152387 0.00027149)
(0.99854 0.0011394 0.000305541)
(0.998187 0.00213073 0.000337848)
(0.998067 0.00272651 0.00036385)
(0.998232 0.00312337 0.000376049)
(0.998688 0.00343464 0.000373137)
(0.999341 0.00370355 0.000358447)
(1.00009 0.00394138 0.000334827)
(1.00086 0.00414054 0.000304991)
(1.00161 0.00428879 0.000271707)
(1.00228 0.00437922 0.000237094)
(1.00286 0.00441222 0.000202546)
(1.00333 0.00439362 0.000168997)
(1.00371 0.00433272 0.000137062)
(1.00399 0.00423985 0.000107072)
(1.0042 0.00412714 7.92491e-05)
(1.00435 0.00399646 5.35696e-05)
(1.00448 0.00386838 3.14973e-05)
(1.00467 0.00360221 7.50648e-06)
(1.00008 -0.000164575 0.000201835)
(0.999668 -0.000206488 0.000214174)
(0.999209 -1.86315e-05 0.000224354)
(0.998992 0.000274587 0.000236172)
(0.999002 0.000682643 0.000245431)
(0.999178 0.00118263 0.000251293)
(0.999493 0.00170039 0.000251892)
(0.999922 0.00218185 0.000247139)
(1.00044 0.00260416 0.000237585)
(1.00102 0.00295748 0.000223838)
(1.00164 0.0032379 0.000206735)
(1.00227 0.00344708 0.000187154)
(1.0029 0.00359072 0.000165876)
(1.00351 0.00367662 0.000143594)
(1.00407 0.00371342 0.000120911)
(1.0046 0.00370919 9.82862e-05)
(1.00509 0.0036716 7.61882e-05)
(1.00555 0.00360124 5.46031e-05)
(1.00596 0.0035046 3.56937e-05)
(1.0065 0.00329711 1.54651e-05)
(1.0001 -2.49737e-05 0.000181418)
(0.999917 3.4929e-05 0.000192844)
(0.999707 0.000288814 0.000207836)
(0.999627 0.000653985 0.000224316)
(0.999669 0.00103982 0.000234408)
(0.999806 0.00140618 0.00023877)
(1.00004 0.00173665 0.000237473)
(1.00037 0.00202677 0.000231117)
(1.00078 0.00227855 0.000220706)
(1.00126 0.0024938 0.000207083)
(1.0018 0.00267287 0.000191032)
(1.00238 0.00281622 0.000173265)
(1.00298 0.0029251 0.000154344)
(1.0036 0.00300137 0.000134713)
(1.00421 0.00304726 0.000114749)
(1.00482 0.0030648 9.47329e-05)
(1.00542 0.00305568 7.50379e-05)
(1.00601 0.00301779 5.55214e-05)
(1.00655 0.00295121 3.85495e-05)
(1.00728 0.00280958 2.16546e-05)
(1.00011 2.35595e-05 0.00016684)
(1.00001 0.000112061 0.000174972)
(0.9999 0.000286857 0.000186764)
(0.999878 0.000518818 0.000199346)
(0.999952 0.000768697 0.000205218)
(1.00011 0.00102113 0.000206548)
(1.00035 0.00126597 0.000204471)
(1.00067 0.00149252 0.000199253)
(1.00106 0.00169428 0.000191262)
(1.0015 0.00186878 0.000180868)
(1.002 0.00201555 0.000168449)
(1.00254 0.00213523 0.000154405)
(1.00311 0.00222926 0.000139098)
(1.0037 0.00229935 0.000122853)
(1.00432 0.00234706 0.00010598)
(1.00494 0.0023734 8.8732e-05)
(1.00557 0.00237874 7.14916e-05)
(1.0062 0.00236119 5.41302e-05)
(1.00679 0.00231963 3.91311e-05)
(1.0076 0.00223108 2.52636e-05)
(1.00011 3.25778e-05 0.000156485)
(1.00005 0.000114512 0.000162063)
(0.999991 0.000238107 0.000172309)
(1.00001 0.000398319 0.000184073)
(1.00011 0.000575262 0.00018957)
(1.00028 0.000754723 0.000190846)
(1.00053 0.000926819 0.000189157)
(1.00084 0.00108393 0.000184666)
(1.00122 0.00122216 0.000177632)
(1.00165 0.00134069 0.000168404)
(1.00213 0.00144001 0.000157325)
(1.00265 0.00152123 0.000144731)
(1.0032 0.00158571 0.000130935)
(1.00378 0.00163478 0.000116218)
(1.00439 0.00166945 0.000100852)
(1.00501 0.00169019 8.50606e-05)
(1.00564 0.00169687 6.92075e-05)
(1.00629 0.00168812 5.31574e-05)
(1.00689 0.00166288 3.93961e-05)
(1.00773 0.00161067 2.73924e-05)
(1.00011 2.41143e-05 0.000149873)
(1.00006 7.93853e-05 0.000153855)
(1.00003 0.000153547 0.000163107)
(1.00007 0.000246456 0.000174156)
(1.00018 0.000348812 0.000179066)
(1.00036 0.000452673 0.000179877)
(1.00061 0.000552818 0.000178062)
(1.00092 0.000645231 0.000173856)
(1.0013 0.000727395 0.000167452)
(1.00172 0.000798336 0.000159108)
(1.0022 0.000858029 0.000149076)
(1.00271 0.000906977 0.000137604)
(1.00326 0.000945967 0.000124946)
(1.00383 0.000975827 0.000111345)
(1.00443 0.00099721 9.70507e-05)
(1.00505 0.00101044 8.22733e-05)
(1.00568 0.00101544 6.73731e-05)
(1.00632 0.00101154 5.22193e-05)
(1.00693 0.000998173 3.9289e-05)
(1.00779 0.000971168 2.84011e-05)
(1.00011 8.67323e-06 0.000146664)
(1.00007 2.80374e-05 0.000149879)
(1.00005 5.28684e-05 0.000158641)
(1.0001 8.34424e-05 0.000169354)
(1.00021 0.000117146 0.000174057)
(1.0004 0.000151484 0.000174771)
(1.00065 0.000184727 0.000173021)
(1.00096 0.000215492 0.00016904)
(1.00133 0.000242856 0.000162971)
(1.00175 0.000266437 0.000155035)
(1.00223 0.00028622 0.000145456)
(1.00274 0.000302393 0.000134461)
(1.00328 0.000315244 0.000122285)
(1.00385 0.000325072 0.000109159)
(1.00445 0.000332115 9.53279e-05)
(1.00506 0.000336492 8.09967e-05)
(1.00569 0.00033819 6.65234e-05)
(1.00634 0.000337006 5.17775e-05)
(1.00694 0.000332771 3.92261e-05)
(1.00781 0.000324411 2.88161e-05)
(1.00011 -8.67443e-06 0.000146664)
(1.00007 -2.8041e-05 0.000149879)
(1.00005 -5.28741e-05 0.000158641)
(1.0001 -8.34499e-05 0.000169354)
(1.00021 -0.000117155 0.000174056)
(1.0004 -0.000151494 0.000174771)
(1.00065 -0.000184739 0.000173021)
(1.00096 -0.000215506 0.00016904)
(1.00133 -0.000242871 0.000162971)
(1.00175 -0.000266452 0.000155035)
(1.00223 -0.000286235 0.000145456)
(1.00274 -0.000302407 0.000134461)
(1.00328 -0.000315257 0.000122285)
(1.00385 -0.000325084 0.000109159)
(1.00445 -0.000332124 9.5328e-05)
(1.00506 -0.000336498 8.09967e-05)
(1.00569 -0.000338192 6.65234e-05)
(1.00634 -0.000337005 5.17775e-05)
(1.00694 -0.000332766 3.92261e-05)
(1.00781 -0.000324402 2.88161e-05)
(1.00011 -2.41155e-05 0.000149873)
(1.00006 -7.93888e-05 0.000153855)
(1.00003 -0.000153552 0.000163107)
(1.00007 -0.000246464 0.000174156)
(1.00018 -0.000348821 0.000179066)
(1.00036 -0.000452683 0.000179877)
(1.00061 -0.00055283 0.000178062)
(1.00092 -0.000645244 0.000173856)
(1.0013 -0.000727409 0.000167452)
(1.00172 -0.00079835 0.000159108)
(1.0022 -0.000858044 0.000149076)
(1.00271 -0.000906991 0.000137604)
(1.00326 -0.00094598 0.000124946)
(1.00383 -0.000975838 0.000111345)
(1.00443 -0.000997219 9.70507e-05)
(1.00505 -0.00101044 8.22733e-05)
(1.00568 -0.00101544 6.73731e-05)
(1.00632 -0.00101154 5.22193e-05)
(1.00693 -0.000998168 3.9289e-05)
(1.00779 -0.00097116 2.84012e-05)
(1.00011 -3.25789e-05 0.000156485)
(1.00005 -0.000114515 0.000162062)
(0.999991 -0.000238113 0.000172309)
(1.00001 -0.000398326 0.000184073)
(1.00011 -0.00057527 0.00018957)
(1.00028 -0.000754733 0.000190846)
(1.00053 -0.000926831 0.000189157)
(1.00084 -0.00108394 0.000184666)
(1.00122 -0.00122217 0.000177632)
(1.00165 -0.0013407 0.000168404)
(1.00213 -0.00144003 0.000157325)
(1.00265 -0.00152125 0.000144731)
(1.0032 -0.00158573 0.000130935)
(1.00378 -0.00163479 0.000116218)
(1.00439 -0.00166946 0.000100852)
(1.00501 -0.00169019 8.50606e-05)
(1.00564 -0.00169687 6.92075e-05)
(1.00629 -0.00168812 5.31575e-05)
(1.00689 -0.00166288 3.93961e-05)
(1.00773 -0.00161066 2.73925e-05)
(1.00011 -2.35606e-05 0.00016684)
(1.00001 -0.000112064 0.000174972)
(0.9999 -0.000286862 0.000186764)
(0.999878 -0.000518824 0.000199345)
(0.999952 -0.000768705 0.000205218)
(1.00011 -0.00102114 0.000206548)
(1.00035 -0.00126598 0.000204471)
(1.00067 -0.00149253 0.000199253)
(1.00106 -0.00169429 0.000191262)
(1.0015 -0.0018688 0.000180868)
(1.002 -0.00201556 0.000168449)
(1.00254 -0.00213524 0.000154405)
(1.00311 -0.00222928 0.000139098)
(1.0037 -0.00229936 0.000122853)
(1.00432 -0.00234707 0.00010598)
(1.00494 -0.0023734 8.8732e-05)
(1.00557 -0.00237874 7.14917e-05)
(1.0062 -0.00236119 5.41303e-05)
(1.00679 -0.00231963 3.91311e-05)
(1.0076 -0.00223107 2.52636e-05)
(1.0001 2.49727e-05 0.000181418)
(0.999917 -3.49319e-05 0.000192844)
(0.999707 -0.000288818 0.000207835)
(0.999627 -0.000653991 0.000224315)
(0.999669 -0.00103983 0.000234408)
(0.999806 -0.00140619 0.000238769)
(1.00004 -0.00173666 0.000237473)
(1.00037 -0.00202679 0.000231117)
(1.00078 -0.00227856 0.000220706)
(1.00126 -0.00249381 0.000207083)
(1.0018 -0.00267288 0.000191032)
(1.00238 -0.00281624 0.000173265)
(1.00298 -0.00292511 0.000154344)
(1.0036 -0.00300138 0.000134714)
(1.00421 -0.00304727 0.00011475)
(1.00482 -0.00306481 9.4733e-05)
(1.00542 -0.00305568 7.5038e-05)
(1.00601 -0.00301778 5.55215e-05)
(1.00655 -0.0029512 3.85496e-05)
(1.00728 -0.00280957 2.16546e-05)
(1.00008 0.000164574 0.000201834)
(0.999668 0.000206485 0.000214173)
(0.999209 1.86273e-05 0.000224354)
(0.998992 -0.000274592 0.000236172)
(0.999002 -0.00068265 0.00024543)
(0.999178 -0.00118264 0.000251293)
(0.999493 -0.0017004 0.000251891)
(0.999922 -0.00218186 0.000247139)
(1.00044 -0.00260417 0.000237585)
(1.00102 -0.00295749 0.000223838)
(1.00164 -0.00323791 0.000206735)
(1.00227 -0.00344709 0.000187154)
(1.0029 -0.00359073 0.000165876)
(1.00351 -0.00367663 0.000143594)
(1.00407 -0.00371342 0.000120912)
(1.0046 -0.0037092 9.82863e-05)
(1.00509 -0.0036716 7.61884e-05)
(1.00555 -0.00360124 5.46032e-05)
(1.00596 -0.0035046 3.56938e-05)
(1.0065 -0.0032971 1.54651e-05)
(1.00002 0.000676256 0.000229083)
(0.999207 0.000152385 0.000271489)
(0.99854 -0.00113941 0.000305541)
(0.998187 -0.00213074 0.000337848)
(0.998067 -0.00272651 0.00036385)
(0.998232 -0.00312337 0.000376049)
(0.998688 -0.00343465 0.000373137)
(0.999341 -0.00370356 0.000358446)
(1.00009 -0.00394139 0.000334827)
(1.00086 -0.00414055 0.000304991)
(1.00161 -0.0042888 0.000271707)
(1.00228 -0.00437923 0.000237094)
(1.00286 -0.00441223 0.000202546)
(1.00333 -0.00439363 0.000168997)
(1.00371 -0.00433272 0.000137062)
(1.00399 -0.00423986 0.000107073)
(1.0042 -0.00412714 7.92494e-05)
(1.00435 -0.00399646 5.35699e-05)
(1.00448 -0.00386837 3.14975e-05)
(1.00467 -0.0036022 7.5065e-06)
(0.998457 0.00325636 0.000193075)
(0.995123 0.00668521 0.000189207)
(0.994341 0.00715296 0.000202587)
(0.995263 0.00570102 0.000241184)
(0.996559 0.00348424 0.000290025)
(0.997858 0.00124891 0.000320691)
(0.999121 -0.000680379 0.000330311)
(1.00027 -0.00221001 0.000325913)
(1.00124 -0.0033376 0.000310736)
(1.00199 -0.0041016 0.000287)
(1.0025 -0.00456283 0.000257591)
(1.00279 -0.00478861 0.000225054)
(1.00286 -0.00484148 0.000191251)
(1.00276 -0.00477461 0.000157591)
(1.0025 -0.00463158 0.000125129)
(1.00213 -0.00444686 9.45459e-05)
(1.00169 -0.00425232 6.6266e-05)
(1.00121 -0.00405921 4.11697e-05)
(1.00079 -0.00392181 2.03476e-05)
(1.00034 -0.00363513 -1.35316e-06)
(0.999755 -0.0100169 0.000453398)
(0.997224 -0.0187471 0.000421127)
(0.994996 -0.0193295 0.000444373)
(0.994681 -0.0170519 0.000596661)
(0.996284 -0.0143973 0.000772209)
(0.998622 -0.0119436 0.000870797)
(1.00076 -0.0098562 0.000882136)
(1.00226 -0.0082171 0.0008298)
(1.00302 -0.00698616 0.000738752)
(1.00309 -0.00605689 0.000629422)
(1.00257 -0.00533145 0.000516633)
(1.0016 -0.00474373 0.000409637)
(1.00031 -0.00425329 0.000313361)
(0.99882 -0.00383674 0.000229843)
(0.997228 -0.00348343 0.000159366)
(0.995612 -0.00319027 0.00010087)
(0.994041 -0.00297178 5.25168e-05)
(0.992521 -0.00282543 1.53626e-05)
(0.991311 -0.00287666 -1.16912e-05)
(0.989919 -0.0028913 -2.31553e-05)
(1.00064 0.0555909 0.000289672)
(1.00923 0.0561042 0.000281676)
(1.01449 0.0402382 0.000312744)
(1.01392 0.0257842 0.00030132)
(1.00984 0.0147423 0.00016838)
(1.00442 0.00689507 1.34205e-05)
(0.998397 0.00166041 -0.000103943)
(0.992135 -0.00162844 -0.000177809)
(0.985983 -0.00354019 -0.000216534)
(0.980184 -0.00450252 -0.000228152)
(0.974854 -0.00483414 -0.000221159)
(0.970029 -0.00477294 -0.000204256)
(0.965712 -0.00449055 -0.000184392)
(0.961877 -0.00410465 -0.000166019)
(0.958483 -0.00369353 -0.000151588)
(0.955459 -0.00330616 -0.000141535)
(0.952772 -0.00298294 -0.000135866)
(0.950182 -0.00273548 -0.00012738)
(0.948142 -0.00268406 -0.000116446)
(0.944423 -0.00258124 -6.06779e-05)
(0.999797 -0.055553 0.000178308)
(1.00844 -0.0563392 0.000405758)
(1.01404 -0.0411534 0.000474031)
(1.01394 -0.02764 0.000467134)
(1.01053 -0.0175429 0.000413382)
(1.00594 -0.0104296 0.000340869)
(1.00087 -0.00561199 0.0002712)
(0.995618 -0.00240953 0.000210216)
(0.990454 -0.000299051 0.000158607)
(0.985564 0.00107087 0.000117157)
(0.981012 0.00193488 8.51023e-05)
(0.976806 0.00245494 5.97446e-05)
(0.972936 0.00274336 3.79616e-05)
(0.969381 0.00287727 1.7286e-05)
(0.966119 0.0029114 -4.03245e-06)
(0.963101 0.00288454 -2.64753e-05)
(0.960333 0.00283858 -4.91676e-05)
(0.957579 0.00278609 -6.80452e-05)
(0.955405 0.00287078 -7.14257e-05)
(0.951404 0.00280179 -6.65043e-05)
(0.999648 0.0102929 0.000237661)
(0.996994 0.0192212 0.000302053)
(0.994734 0.0200386 0.00034994)
(0.994259 0.0181647 0.000412164)
(0.995622 0.0159112 0.000490343)
(0.997839 0.0136771 0.00057089)
(1.0001 0.0115697 0.000639418)
(1.00201 0.00972725 0.000685539)
(1.0034 0.00820839 0.000703985)
(1.00425 0.00698945 0.00069509)
(1.00457 0.00602067 0.000662956)
(1.00442 0.00525312 0.000613115)
(1.00387 0.00464295 0.000551179)
(1.00301 0.00415294 0.000482129)
(1.00191 0.00375622 0.000409666)
(1.00065 0.00343459 0.000336873)
(0.999322 0.00319313 0.000265771)
(0.997931 0.00301475 0.000196614)
(0.996806 0.00303512 0.000130586)
(0.995402 0.00297821 4.63575e-05)
(0.998311 -0.00330747 0.000146659)
(0.994981 -0.00667572 0.000174771)
(0.994223 -0.00724277 0.000201098)
(0.995119 -0.00616754 0.000226382)
(0.996376 -0.00446059 0.000249982)
(0.997644 -0.00268384 0.000270601)
(0.998906 -0.001057 0.000287369)
(1.00011 0.000351095 0.000301153)
(1.0012 0.00151403 0.000310669)
(1.00214 0.00242674 0.000313806)
(1.00291 0.00310608 0.000309542)
(1.0035 0.00358304 0.000297768)
(1.0039 0.00389272 0.000278935)
(1.00412 0.00406886 0.000253962)
(1.00417 0.00414282 0.00022398)
(1.00409 0.0041415 0.000190155)
(1.00389 0.00409454 0.000153535)
(1.00361 0.00400847 0.000113983)
(1.00334 0.00395208 7.39008e-05)
(1.003 0.00368419 2.04819e-05)
(0.999883 -0.000664427 0.00016601)
(0.999074 -0.000121644 0.000220839)
(0.998501 0.00116265 0.000252696)
(0.998263 0.00216593 0.000279962)
(0.998214 0.0027713 0.000307267)