/*--------------------------------*- C++ -*----------------------------------*\
  =========                 |
  \\      /  F ield         | OpenFOAM: The Open Source CFD Toolbox
   \\    /   O peration     | Website:  https://openfoam.org
    \\  /    A nd           | Version:  9
     \\/     M anipulation  |
\*---------------------------------------------------------------------------*/
FoamFile
{
    format      ascii;
    class       volVectorField;
    location    "400";
    object      U;
}
// * * * * * * * * * * * * * * * * * * * * * * * * * * * * * * * * * * * * * //

dimensions      [0 1 -1 0 0 0 0];

internalField   nonuniform List<vector> 
8000
(
(0.998907 -0.0550128 -0.0290344)
(1.00688 -0.0530299 -0.0254796)
(1.01122 -0.0342657 -0.0169318)
(1.00859 -0.0177035 -0.0128473)
(1.0025 -0.00599616 -0.010387)
(0.995397 0.00124798 -0.00824762)
(0.988154 0.00511519 -0.00650998)
(0.981193 0.0067547 -0.00524444)
(0.974847 0.00707212 -0.00430834)
(0.969275 0.00668151 -0.00356908)
(0.964476 0.00597157 -0.0029644)
(0.960372 0.00517449 -0.00245871)
(0.956867 0.00441619 -0.00202048)
(0.953861 0.00375438 -0.00162484)
(0.951262 0.00320802 -0.00125719)
(0.948975 0.002777 -0.000909457)
(0.94694 0.00246364 -0.000589341)
(0.944946 0.00225707 -0.000287498)
(0.943331 0.00223722 -0.000121378)
(0.940193 0.00224118 0.000242819)
(0.999572 0.0107655 0.00291335)
(0.996682 0.0188139 0.00179877)
(0.994486 0.018032 -2.86101e-05)
(0.994633 0.0151507 -0.00141334)
(0.996235 0.0126519 -0.00226902)
(0.998131 0.0106826 -0.00273192)
(0.999582 0.00910068 -0.00294013)
(1.00032 0.00784118 -0.00298242)
(1.00036 0.00683127 -0.00290325)
(0.999834 0.00599558 -0.0027363)
(0.998868 0.00528587 -0.00251472)
(0.9976 0.00467784 -0.00226408)
(0.996148 0.00415741 -0.00200015)
(0.994605 0.00371431 -0.0017322)
(0.993041 0.00334233 -0.00146614)
(0.991498 0.00303891 -0.00120439)
(0.990028 0.00281598 -0.000950363)
(0.988633 0.00267463 -0.000694608)
(0.987507 0.00272846 -0.000463988)
(0.986215 0.00276213 -0.000122862)
(0.998182 -0.00310074 -0.00223774)
(0.994923 -0.00580836 -0.00446129)
(0.994317 -0.00536416 -0.00503075)
(0.995194 -0.00325095 -0.00463437)
(0.996332 -0.000744049 -0.00415245)
(0.997502 0.00145955 -0.00373427)
(0.998663 0.00313574 -0.00333778)
(0.999705 0.00429029 -0.00296949)
(1.00054 0.00499946 -0.00263949)
(1.00113 0.00535608 -0.00234209)
(1.00148 0.00545371 -0.00206975)
(1.0016 0.00537535 -0.00181761)
(1.00152 0.005187 -0.00158162)
(1.00127 0.00493765 -0.00135806)
(1.00091 0.00466301 -0.00114411)
(1.00045 0.00438787 -0.000937088)
(0.999946 0.00413325 -0.000735682)
(0.999416 0.00390654 -0.000533493)
(0.998956 0.00374835 -0.000338384)
(0.998469 0.00349236 -0.000108634)
(0.999672 -0.00063863 -0.00278324)
(0.998565 -2.87309e-05 -0.00314229)
(0.997734 0.00122374 -0.00303904)
(0.997342 0.0021879 -0.00283649)
(0.997292 0.00289245 -0.00269501)
(0.997593 0.00347528 -0.00257876)
(0.998194 0.00395608 -0.00243809)
(0.998967 0.00432852 -0.00227735)
(0.999799 0.00459429 -0.00210836)
(1.00061 0.0047586 -0.00193349)
(1.00135 0.00483071 -0.0017539)
(1.00199 0.00482457 -0.00157211)
(1.00252 0.00475644 -0.00139018)
(1.00293 0.00464241 -0.00120909)
(1.00323 0.00449742 -0.00102926)
(1.00344 0.00433407 -0.000850452)
(1.00358 0.00416401 -0.000672166)
(1.00367 0.00398997 -0.000492009)
(1.00374 0.00382551 -0.000308745)
(1.00384 0.00355675 -0.000136699)
(0.999788 -0.000110942 -0.00287212)
(0.999258 -1.59043e-05 -0.00308317)
(0.998735 0.000325969 -0.00305143)
(0.99847 0.000766642 -0.00294929)
(0.998454 0.0012971 -0.00279345)
(0.99864 0.00187702 -0.00261732)
(0.999004 0.00242885 -0.0024278)
(0.999509 0.00290471 -0.00223212)
(1.00011 0.00328947 -0.00203765)
(1.00077 0.0035816 -0.00184686)
(1.00146 0.00378609 -0.00166017)
(1.00214 0.00391278 -0.00147792)
(1.00279 0.0039738 -0.00130014)
(1.0034 0.00398141 -0.00112635)
(1.00396 0.00394696 -0.000955854)
(1.00447 0.00387996 -0.000787828)
(1.00494 0.00378815 -0.000621145)
(1.00536 0.00367252 -0.000455086)
(1.00574 0.00353576 -0.000284624)
(1.00622 0.00331081 -0.000155954)
(0.999828 1.46192e-05 -0.00288364)
(0.99957 0.000155403 -0.00302531)
(0.999316 0.000477224 -0.00289619)
(0.999189 0.000887388 -0.00274303)
(0.999206 0.00131029 -0.00257213)
(0.999347 0.00171508 -0.00240366)
(0.999613 0.00208104 -0.00223609)
(0.999995 0.00239638 -0.00206603)
(1.00047 0.00265844 -0.00189502)
(1.00102 0.00286813 -0.0017247)
(1.00163 0.00302781 -0.00155571)
(1.00226 0.0031414 -0.00138858)
(1.00291 0.00321384 -0.00122373)
(1.00356 0.00325025 -0.00106127)
(1.00421 0.00325547 -0.00090102)
(1.00483 0.00323342 -0.000742714)
(1.00544 0.00318689 -0.000585624)
(1.00602 0.00311468 -0.000430435)
(1.00656 0.0030156 -0.0002707)
(1.00725 0.00285432 -0.000169877)
(0.999849 5.04622e-05 -0.00285864)
(0.999709 0.000194024 -0.00297022)
(0.999582 0.000420775 -0.00280493)
(0.999535 0.00069647 -0.00264476)
(0.999595 0.000983252 -0.00248264)
(0.999756 0.00126618 -0.002322)
(1.00001 0.00153298 -0.00216063)
(1.00036 0.0017718 -0.00199667)
(1.00079 0.00197638 -0.0018314)
(1.00128 0.00214509 -0.0016664)
(1.00183 0.0022788 -0.00150252)
(1.00242 0.00237983 -0.00134036)
(1.00304 0.00245131 -0.00118036)
(1.00368 0.00249644 -0.00102272)
(1.00433 0.00251804 -0.00086741)
(1.00498 0.00251812 -0.000714362)
(1.00563 0.00249768 -0.000563029)
(1.00628 0.00245536 -0.000414789)
(1.00689 0.00238969 -0.000262471)
(1.00767 0.00228419 -0.000178185)
(0.99986 5.0375e-05 -0.00282554)
(0.999775 0.000168184 -0.00292409)
(0.999716 0.000325015 -0.00274211)
(0.999719 0.000512288 -0.00257344)
(0.99981 0.00071002 -0.00241045)
(0.999985 0.000905589 -0.0022515)
(1.00024 0.00108963 -0.00209401)
(1.00058 0.00125444 -0.00193597)
(1.00099 0.00139599 -0.00177729)
(1.00145 0.00151345 -0.00161864)
(1.00197 0.00160766 -0.00146062)
(1.00253 0.0016803 -0.00130375)
(1.00313 0.00173349 -0.00114849)
(1.00375 0.0017693 -0.000995157)
(1.0044 0.00178939 -0.000843914)
(1.00505 0.00179479 -0.000694918)
(1.00572 0.00178578 -0.000547833)
(1.00638 0.00176133 -0.000404449)
(1.00701 0.00172043 -0.000257288)
(1.00785 0.00165641 -0.000182493)
(0.999865 3.42809e-05 -0.00279891)
(0.999807 0.000109798 -0.00289168)
(0.999782 0.000202586 -0.00270241)
(0.999813 0.000310991 -0.00252921)
(0.999919 0.000425521 -0.00236623)
(1.0001 0.00053893 -0.00220946)
(1.00036 0.000646183 -0.00205512)
(1.0007 0.000743144 -0.00190084)
(1.00109 0.000827277 -0.00174603)
(1.00155 0.000897733 -0.001591)
(1.00206 0.000954742 -0.00143628)
(1.00261 0.000999168 -0.00128238)
(1.00319 0.00103219 -0.0011298)
(1.00381 0.00105502 -0.000978951)
(1.00444 0.00106861 -0.000830081)
(1.00509 0.00107354 -0.000683486)
(1.00575 0.00106995 -0.000538951)
(1.00643 0.00105731 -0.000398459)
(1.00706 0.00103516 -0.000254381)
(1.00792 0.0010013 -0.00018455)
(0.999868 1.19795e-05 -0.00278451)
(0.99982 3.7892e-05 -0.00287496)
(0.99981 6.8719e-05 -0.00268295)
(0.999852 0.000104301 -0.00250782)
(0.999966 0.000141917 -0.00234475)
(1.00015 0.000179258 -0.00218887)
(1.00041 0.000214688 -0.00203589)
(1.00075 0.000246837 -0.00188331)
(1.00114 0.000274811 -0.00173036)
(1.00159 0.000298276 -0.00157717)
(1.0021 0.000317287 -0.00142416)
(1.00264 0.000332128 -0.00127182)
(1.00322 0.000343196 -0.00112065)
(1.00383 0.000350893 -0.000971083)
(1.00446 0.000355549 -0.000823423)
(1.00511 0.000357358 -0.000678032)
(1.00577 0.000356363 -0.000534751)
(1.00644 0.000352412 -0.000395645)
(1.00708 0.000345386 -0.000253028)
(1.00794 0.00033482 -0.00018533)
(0.999868 -1.19794e-05 -0.00278451)
(0.99982 -3.78916e-05 -0.00287496)
(0.99981 -6.87183e-05 -0.00268295)
(0.999852 -0.0001043 -0.00250782)
(0.999966 -0.000141916 -0.00234475)
(1.00015 -0.000179256 -0.00218887)
(1.00041 -0.000214686 -0.00203589)
(1.00075 -0.000246835 -0.00188331)
(1.00114 -0.000274809 -0.00173036)
(1.00159 -0.000298273 -0.00157717)
(1.0021 -0.000317284 -0.00142416)
(1.00264 -0.000332125 -0.00127182)
(1.00322 -0.000343192 -0.00112065)
(1.00383 -0.000350889 -0.000971083)
(1.00446 -0.000355545 -0.000823423)
(1.00511 -0.000357353 -0.000678032)
(1.00577 -0.000356357 -0.000534751)
(1.00644 -0.000352406 -0.000395645)
(1.00708 -0.000345379 -0.000253028)
(1.00794 -0.000334813 -0.00018533)
(0.999865 -3.42807e-05 -0.00279891)
(0.999807 -0.000109797 -0.00289168)
(0.999782 -0.000202586 -0.00270241)
(0.999813 -0.00031099 -0.00252921)
(0.999919 -0.00042552 -0.00236623)
(1.0001 -0.000538928 -0.00220946)
(1.00036 -0.000646182 -0.00205512)
(1.0007 -0.000743142 -0.00190084)
(1.00109 -0.000827274 -0.00174603)
(1.00155 -0.00089773 -0.001591)
(1.00206 -0.000954739 -0.00143628)
(1.00261 -0.000999164 -0.00128238)
(1.00319 -0.00103219 -0.0011298)
(1.00381 -0.00105501 -0.000978951)
(1.00444 -0.0010686 -0.00083008)
(1.00509 -0.00107354 -0.000683486)
(1.00575 -0.00106994 -0.000538951)
(1.00643 -0.0010573 -0.000398459)
(1.00706 -0.00103515 -0.000254381)
(1.00792 -0.0010013 -0.00018455)
(0.99986 -5.03748e-05 -0.00282554)
(0.999775 -0.000168184 -0.00292409)
(0.999716 -0.000325014 -0.00274211)
(0.999719 -0.000512287 -0.00257344)
(0.99981 -0.000710019 -0.00241045)
(0.999985 -0.000905588 -0.0022515)
(1.00024 -0.00108963 -0.00209401)
(1.00058 -0.00125444 -0.00193597)
(1.00099 -0.00139599 -0.00177729)
(1.00145 -0.00151345 -0.00161864)
(1.00197 -0.00160765 -0.00146062)
(1.00253 -0.0016803 -0.00130375)
(1.00313 -0.00173349 -0.00114849)
(1.00375 -0.0017693 -0.000995157)
(1.0044 -0.00178939 -0.000843914)
(1.00505 -0.00179478 -0.000694918)
(1.00572 -0.00178577 -0.000547833)
(1.00638 -0.00176132 -0.000404448)
(1.00701 -0.00172042 -0.000257288)
(1.00785 -0.0016564 -0.000182493)
(0.999849 -5.04621e-05 -0.00285864)
(0.999709 -0.000194023 -0.00297022)
(0.999582 -0.000420774 -0.00280493)
(0.999535 -0.000696469 -0.00264476)
(0.999595 -0.000983251 -0.00248264)
(0.999756 -0.00126618 -0.002322)
(1.00001 -0.00153298 -0.00216063)
(1.00036 -0.0017718 -0.00199667)
(1.00079 -0.00197638 -0.0018314)
(1.00128 -0.00214509 -0.0016664)
(1.00183 -0.0022788 -0.00150252)
(1.00242 -0.00237983 -0.00134036)
(1.00304 -0.00245131 -0.00118036)
(1.00368 -0.00249644 -0.00102272)
(1.00433 -0.00251804 -0.00086741)
(1.00498 -0.00251811 -0.000714361)
(1.00563 -0.00249767 -0.000563029)
(1.00628 -0.00245536 -0.000414789)
(1.00689 -0.00238968 -0.000262471)
(1.00767 -0.00228419 -0.000178185)
(0.999828 -1.46191e-05 -0.00288364)
(0.99957 -0.000155403 -0.00302531)
(0.999316 -0.000477223 -0.00289619)
(0.999189 -0.000887387 -0.00274303)
(0.999206 -0.00131029 -0.00257213)
(0.999347 -0.00171508 -0.00240366)
(0.999613 -0.00208103 -0.00223609)
(0.999995 -0.00239637 -0.00206603)
(1.00047 -0.00265844 -0.00189502)
(1.00102 -0.00286813 -0.0017247)
(1.00163 -0.00302781 -0.00155571)
(1.00226 -0.0031414 -0.00138858)
(1.00291 -0.00321384 -0.00122373)
(1.00356 -0.00325025 -0.00106127)
(1.00421 -0.00325546 -0.00090102)
(1.00483 -0.00323341 -0.000742714)
(1.00544 -0.00318688 -0.000585624)
(1.00602 -0.00311467 -0.000430435)
(1.00656 -0.00301559 -0.0002707)
(1.00725 -0.00285431 -0.000169877)
(0.999788 0.000110942 -0.00287212)
(0.999258 1.59046e-05 -0.00308317)
(0.998735 -0.000325969 -0.00305143)
(0.99847 -0.000766642 -0.00294929)
(0.998454 -0.0012971 -0.00279345)
(0.99864 -0.00187702 -0.00261732)
(0.999004 -0.00242884 -0.0024278)
(0.999509 -0.00290471 -0.00223212)
(1.00011 -0.00328947 -0.00203765)
(1.00077 -0.0035816 -0.00184686)
(1.00146 -0.00378609 -0.00166017)
(1.00214 -0.00391278 -0.00147792)
(1.00279 -0.0039738 -0.00130014)
(1.0034 -0.0039814 -0.00112635)
(1.00396 -0.00394696 -0.000955853)
(1.00447 -0.00387996 -0.000787827)
(1.00494 -0.00378814 -0.000621144)
(1.00536 -0.00367251 -0.000455085)
(1.00574 -0.00353575 -0.000284623)
(1.00622 -0.0033108 -0.000155953)
(0.999672 0.00063863 -0.00278324)
(0.998565 2.87311e-05 -0.00314229)
(0.997734 -0.00122374 -0.00303904)
(0.997342 -0.0021879 -0.00283649)
(0.997292 -0.00289244 -0.00269501)
(0.997593 -0.00347528 -0.00257876)
(0.998194 -0.00395608 -0.00243809)
(0.998967 -0.00432852 -0.00227735)
(0.999799 -0.00459429 -0.00210836)
(1.00061 -0.0047586 -0.00193349)
(1.00135 -0.0048307 -0.0017539)
(1.00199 -0.00482457 -0.00157211)
(1.00252 -0.00475644 -0.00139018)
(1.00293 -0.00464241 -0.00120909)
(1.00323 -0.00449742 -0.00102925)
(1.00344 -0.00433407 -0.000850451)
(1.00358 -0.00416401 -0.000672164)
(1.00367 -0.00398996 -0.000492007)
(1.00374 -0.0038255 -0.000308744)
(1.00384 -0.00355674 -0.000136698)
(0.998182 0.00310074 -0.00223774)
(0.994923 0.00580836 -0.00446129)
(0.994317 0.00536416 -0.00503075)
(0.995194 0.00325095 -0.00463437)
(0.996332 0.00074405 -0.00415245)
(0.997502 -0.00145955 -0.00373427)
(0.998663 -0.00313574 -0.00333778)
(0.999705 -0.00429029 -0.00296949)
(1.00054 -0.00499946 -0.00263949)
(1.00113 -0.00535608 -0.00234209)
(1.00148 -0.00545371 -0.00206975)
(1.0016 -0.00537535 -0.00181761)
(1.00152 -0.005187 -0.00158161)
(1.00127 -0.00493764 -0.00135806)
(1.00091 -0.00466301 -0.00114411)
(1.00045 -0.00438787 -0.000937087)
(0.999946 -0.00413325 -0.000735681)
(0.999416 -0.00390654 -0.000533491)
(0.998956 -0.00374833 -0.000338382)
(0.998469 -0.00349234 -0.000108632)
(0.999572 -0.0107655 0.00291335)
(0.996682 -0.0188139 0.00179877)
(0.994486 -0.018032 -2.86097e-05)
(0.994633 -0.0151507 -0.00141334)
(0.996235 -0.0126519 -0.00226902)
(0.998131 -0.0106826 -0.00273192)
(0.999582 -0.00910068 -0.00294013)
(1.00032 -0.00784118 -0.00298242)
(1.00036 -0.00683127 -0.00290325)
(0.999834 -0.00599558 -0.0027363)
(0.998868 -0.00528587 -0.00251472)
(0.9976 -0.00467784 -0.00226408)
(0.996148 -0.00415741 -0.00200015)
(0.994605 -0.00371431 -0.0017322)
(0.993041 -0.00334234 -0.00146614)
(0.991498 -0.00303892 -0.00120439)
(0.990028 -0.00281599 -0.00095036)
(0.988633 -0.00267464 -0.000694605)
(0.987507 -0.00272845 -0.000463983)
(0.986215 -0.00276212 -0.000122856)
(0.998907 0.0550128 -0.0290344)
(1.00688 0.0530299 -0.0254796)
(1.01122 0.0342657 -0.0169318)
(1.00859 0.0177035 -0.0128473)
(1.0025 0.00599616 -0.010387)
(0.995397 -0.00124797 -0.00824762)
(0.988154 -0.00511519 -0.00650998)
(0.981193 -0.0067547 -0.00524444)
(0.974847 -0.00707212 -0.00430834)
(0.969275 -0.00668151 -0.00356908)
(0.964476 -0.00597157 -0.0029644)
(0.960372 -0.00517449 -0.00245871)
(0.956867 -0.00441619 -0.00202048)
(0.953861 -0.00375438 -0.00162484)
(0.951262 -0.00320802 -0.0012572)
(0.948975 -0.002777 -0.00090946)
(0.94694 -0.00246363 -0.000589347)
(0.944946 -0.00225706 -0.000287506)
(0.943331 -0.00223717 -0.000121389)
(0.940193 -0.00224111 0.000242809)
(1.00064 -0.0555909 0.000289671)
(1.00923 -0.0561042 0.000281675)
(1.01449 -0.0402382 0.000312744)
(1.01392 -0.0257842 0.00030132)
(1.00984 -0.0147423 0.00016838)
(1.00442 -0.00689507 1.34206e-05)
(0.998397 -0.00166041 -0.000103943)
(0.992135 0.00162844 -0.000177809)
(0.985983 0.00354019 -0.000216535)
(0.980184 0.00450252 -0.000228152)
(0.974854 0.00483414 -0.00022116)
(0.970029 0.00477294 -0.000204256)
(0.965712 0.00449055 -0.000184392)
(0.961877 0.00410465 -0.000166019)
(0.958483 0.00369353 -0.000151588)
(0.955459 0.00330617 -0.000141535)
(0.952772 0.00298296 -0.000135867)
(0.950182 0.00273551 -0.000127381)
(0.948142 0.00268412 -0.000116447)
(0.944423 0.00258133 -6.06786e-05)
(0.999755 0.0100169 0.000453397)
(0.997224 0.0187471 0.000421126)
(0.994996 0.0193295 0.000444373)
(0.994681 0.0170519 0.000596661)
(0.996284 0.0143973 0.000772209)
(0.998622 0.0119436 0.000870797)
(1.00076 0.0098562 0.000882137)
(1.00226 0.0082171 0.0008298)
(1.00302 0.00698616 0.000738752)
(1.00309 0.00605689 0.000629421)
(1.00257 0.00533145 0.000516632)
(1.0016 0.00474373 0.000409637)
(1.00031 0.00425329 0.000313361)
(0.99882 0.00383673 0.000229843)
(0.997228 0.00348343 0.000159365)
(0.995612 0.00319026 0.000100869)
(0.994041 0.00297177 5.25156e-05)
(0.992521 0.00282542 1.53615e-05)
(0.991311 0.00287666 -1.16919e-05)
(0.989919 0.00289131 -2.31556e-05)
(0.998457 -0.00325636 0.000193075)
(0.995123 -0.00668521 0.000189206)
(0.994341 -0.00715296 0.000202587)
(0.995263 -0.00570102 0.000241184)
(0.996559 -0.00348424 0.000290025)
(0.997858 -0.00124891 0.000320692)
(0.999121 0.000680379 0.000330311)
(1.00027 0.00221001 0.000325913)
(1.00124 0.0033376 0.000310736)
(1.00199 0.0041016 0.000286999)
(1.0025 0.00456283 0.000257591)
(1.00279 0.00478861 0.000225053)
(1.00286 0.00484148 0.00019125)
(1.00276 0.00477461 0.000157591)
(1.0025 0.00463158 0.000125128)
(1.00213 0.00444686 9.45454e-05)
(1.00169 0.00425232 6.62655e-05)
(1.00121 0.00405921 4.11693e-05)
(1.00079 0.00392182 2.03474e-05)
(1.00034 0.00363515 -1.35309e-06)
(1.00002 -0.000676256 0.000229082)
(0.999207 -0.000152385 0.000271488)
(0.99854 0.00113941 0.00030554)
(0.998187 0.00213074 0.000337847)
(0.998067 0.00272651 0.00036385)
(0.998232 0.00312337 0.000376049)
(0.998688 0.00343465 0.000373137)
(0.999341 0.00370355 0.000358446)
(1.00009 0.00394139 0.000334827)
(1.00086 0.00414055 0.000304991)
(1.00161 0.00428879 0.000271707)
(1.00228 0.00437923 0.000237094)
(1.00286 0.00441223 0.000202545)
(1.00333 0.00439362 0.000168997)
(1.00371 0.00433272 0.000137062)
(1.00399 0.00423985 0.000107072)
(1.0042 0.00412714 7.92492e-05)
(1.00435 0.00399646 5.35697e-05)
(1.00448 0.00386838 3.14974e-05)
(1.00467 0.00360221 7.50651e-06)
(1.00008 -0.000164574 0.000201833)
(0.999668 -0.000206486 0.000214173)
(0.999209 -1.86283e-05 0.000224354)
(0.998992 0.000274591 0.000236171)
(0.999002 0.000682648 0.00024543)
(0.999178 0.00118264 0.000251293)
(0.999493 0.0017004 0.000251891)
(0.999922 0.00218185 0.000247139)
(1.00044 0.00260416 0.000237585)
(1.00102 0.00295749 0.000223838)
(1.00164 0.00323791 0.000206734)
(1.00227 0.00344708 0.000187153)
(1.0029 0.00359072 0.000165876)
(1.00351 0.00367663 0.000143594)
(1.00407 0.00371342 0.000120911)
(1.0046 0.0037092 9.82862e-05)
(1.00509 0.0036716 7.61883e-05)
(1.00555 0.00360124 5.46031e-05)
(1.00596 0.0035046 3.56938e-05)
(1.0065 0.00329711 1.54651e-05)
(1.0001 -2.4973e-05 0.000181417)
(0.999917 3.49309e-05 0.000192843)
(0.999707 0.000288817 0.000207835)
(0.999627 0.00065399 0.000224315)
(0.999669 0.00103982 0.000234408)
(0.999806 0.00140619 0.00023877)
(1.00004 0.00173666 0.000237473)
(1.00037 0.00202678 0.000231117)
(1.00078 0.00227856 0.000220706)
(1.00126 0.0024938 0.000207083)
(1.0018 0.00267288 0.000191032)
(1.00238 0.00281623 0.000173264)
(1.00298 0.00292511 0.000154344)
(1.0036 0.00300138 0.000134713)
(1.00421 0.00304727 0.000114749)
(1.00482 0.00306481 9.47328e-05)
(1.00542 0.00305568 7.50379e-05)
(1.00601 0.00301779 5.55214e-05)
(1.00655 0.0029512 3.85496e-05)
(1.00728 0.00280958 2.16546e-05)
(1.00011 2.35602e-05 0.000166839)
(1.00001 0.000112063 0.000174971)
(0.9999 0.000286861 0.000186764)
(0.999878 0.000518822 0.000199345)
(0.999952 0.000768702 0.000205218)
(1.00011 0.00102114 0.000206548)
(1.00035 0.00126598 0.000204471)
(1.00067 0.00149253 0.000199253)
(1.00106 0.00169428 0.000191262)
(1.0015 0.00186879 0.000180868)
(1.002 0.00201555 0.000168449)
(1.00254 0.00213523 0.000154405)
(1.00311 0.00222927 0.000139098)
(1.0037 0.00229936 0.000122853)
(1.00432 0.00234706 0.00010598)
(1.00494 0.0023734 8.87319e-05)
(1.00557 0.00237874 7.14916e-05)
(1.0062 0.00236119 5.41302e-05)
(1.00679 0.00231963 3.91311e-05)
(1.0076 0.00223108 2.52636e-05)
(1.00011 3.25785e-05 0.000156484)
(1.00005 0.000114514 0.000162061)
(0.999991 0.000238111 0.000172308)
(1.00001 0.000398324 0.000184072)
(1.00011 0.000575268 0.00018957)
(1.00028 0.00075473 0.000190846)
(1.00053 0.000926827 0.000189158)
(1.00084 0.00108393 0.000184666)
(1.00122 0.00122217 0.000177632)
(1.00165 0.0013407 0.000168404)
(1.00213 0.00144002 0.000157325)
(1.00265 0.00152124 0.000144731)
(1.0032 0.00158572 0.000130934)
(1.00378 0.00163479 0.000116218)
(1.00439 0.00166946 0.000100852)
(1.00501 0.00169019 8.50605e-05)
(1.00564 0.00169687 6.92074e-05)
(1.00629 0.00168812 5.31574e-05)
(1.00689 0.00166288 3.93961e-05)
(1.00773 0.00161067 2.73924e-05)
(1.00011 2.4115e-05 0.000149872)
(1.00006 7.93874e-05 0.000153854)
(1.00003 0.00015355 0.000163106)
(1.00007 0.000246461 0.000174155)
(1.00018 0.000348817 0.000179066)
(1.00036 0.000452679 0.000179877)
(1.00061 0.000552826 0.000178062)
(1.00092 0.00064524 0.000173856)
(1.0013 0.000727404 0.000167452)
(1.00172 0.000798345 0.000159108)
(1.0022 0.000858039 0.000149076)
(1.00271 0.000906986 0.000137604)
(1.00326 0.000945976 0.000124946)
(1.00383 0.000975834 0.000111345)
(1.00443 0.000997217 9.70506e-05)
(1.00505 0.00101044 8.22731e-05)
(1.00568 0.00101545 6.7373e-05)
(1.00632 0.00101154 5.22192e-05)
(1.00693 0.000998173 3.9289e-05)
(1.00779 0.000971167 2.84011e-05)
(1.00011 8.67391e-06 0.000146663)
(1.00007 2.80395e-05 0.000149878)
(1.00005 5.28717e-05 0.000158641)
(1.0001 8.34468e-05 0.000169354)
(1.00021 0.000117151 0.000174056)
(1.0004 0.00015149 0.000174771)
(1.00065 0.000184734 0.000173021)
(1.00096 0.0002155 0.00016904)
(1.00133 0.000242865 0.000162971)
(1.00175 0.000266446 0.000155035)
(1.00223 0.000286229 0.000145456)
(1.00274 0.000302402 0.000134461)
(1.00328 0.000315252 0.000122284)
(1.00385 0.00032508 0.000109159)
(1.00445 0.000332121 9.53278e-05)
(1.00506 0.000336497 8.09966e-05)
(1.00569 0.000338193 6.65233e-05)
(1.00634 0.000337008 5.17775e-05)
(1.00694 0.000332772 3.92261e-05)
(1.00781 0.00032441 2.88161e-05)
(1.00011 -8.67376e-06 0.000146663)
(1.00007 -2.8039e-05 0.000149878)
(1.00005 -5.28709e-05 0.000158641)
(1.0001 -8.34458e-05 0.000169354)
(1.00021 -0.00011715 0.000174056)
(1.0004 -0.000151489 0.000174771)
(1.00065 -0.000184732 0.000173021)
(1.00096 -0.000215498 0.00016904)
(1.00133 -0.000242863 0.000162971)
(1.00175 -0.000266443 0.000155035)
(1.00223 -0.000286226 0.000145456)
(1.00274 -0.000302399 0.000134461)
(1.00328 -0.000315248 0.000122284)
(1.00385 -0.000325076 0.000109159)
(1.00445 -0.000332117 9.53278e-05)
(1.00506 -0.000336492 8.09966e-05)
(1.00569 -0.000338188 6.65233e-05)
(1.00634 -0.000337002 5.17775e-05)
(1.00694 -0.000332765 3.92261e-05)
(1.00781 -0.000324402 2.88161e-05)
(1.00011 -2.41149e-05 0.000149872)
(1.00006 -7.93869e-05 0.000153854)
(1.00003 -0.000153549 0.000163106)
(1.00007 -0.00024646 0.000174155)
(1.00018 -0.000348816 0.000179066)
(1.00036 -0.000452678 0.000179877)
(1.00061 -0.000552824 0.000178062)
(1.00092 -0.000645238 0.000173856)
(1.0013 -0.000727402 0.000167452)
(1.00172 -0.000798343 0.000159108)
(1.0022 -0.000858036 0.000149076)
(1.00271 -0.000906983 0.000137604)
(1.00326 -0.000945972 0.000124946)
(1.00383 -0.00097583 0.000111345)
(1.00443 -0.000997212 9.70506e-05)
(1.00505 -0.00101044 8.22731e-05)
(1.00568 -0.00101544 6.7373e-05)
(1.00632 -0.00101154 5.22192e-05)
(1.00693 -0.000998166 3.9289e-05)
(1.00779 -0.000971159 2.84011e-05)
(1.00011 -3.25783e-05 0.000156484)
(1.00005 -0.000114513 0.000162061)
(0.999991 -0.00023811 0.000172308)
(1.00001 -0.000398323 0.000184072)
(1.00011 -0.000575266 0.00018957)
(1.00028 -0.000754729 0.000190846)
(1.00053 -0.000926826 0.000189158)
(1.00084 -0.00108393 0.000184666)
(1.00122 -0.00122217 0.000177632)
(1.00165 -0.00134069 0.000168404)
(1.00213 -0.00144002 0.000157325)
(1.00265 -0.00152124 0.000144731)
(1.0032 -0.00158572 0.000130934)
(1.00378 -0.00163479 0.000116218)
(1.00439 -0.00166945 0.000100852)
(1.00501 -0.00169019 8.50605e-05)
(1.00564 -0.00169687 6.92074e-05)
(1.00629 -0.00168812 5.31575e-05)
(1.00689 -0.00166287 3.93961e-05)
(1.00773 -0.00161066 2.73925e-05)
(1.00011 -2.35601e-05 0.000166839)
(1.00001 -0.000112063 0.000174971)
(0.9999 -0.00028686 0.000186764)
(0.999878 -0.000518821 0.000199345)
(0.999952 -0.000768701 0.000205218)
(1.00011 -0.00102114 0.000206548)
(1.00035 -0.00126598 0.000204471)
(1.00067 -0.00149253 0.000199253)
(1.00106 -0.00169428 0.000191262)
(1.0015 -0.00186879 0.000180868)
(1.002 -0.00201555 0.000168449)
(1.00254 -0.00213523 0.000154404)
(1.00311 -0.00222927 0.000139098)
(1.0037 -0.00229936 0.000122853)
(1.00432 -0.00234706 0.00010598)
(1.00494 -0.0023734 8.87319e-05)
(1.00557 -0.00237873 7.14916e-05)
(1.0062 -0.00236119 5.41302e-05)
(1.00679 -0.00231963 3.91311e-05)
(1.0076 -0.00223107 2.52636e-05)
(1.0001 2.49732e-05 0.000181417)
(0.999917 -3.49306e-05 0.000192843)
(0.999707 -0.000288816 0.000207835)
(0.999627 -0.000653989 0.000224315)
(0.999669 -0.00103982 0.000234408)
(0.999806 -0.00140619 0.00023877)
(1.00004 -0.00173666 0.000237473)
(1.00037 -0.00202678 0.000231117)
(1.00078 -0.00227856 0.000220706)
(1.00126 -0.0024938 0.000207083)
(1.0018 -0.00267288 0.000191032)
(1.00238 -0.00281623 0.000173264)
(1.00298 -0.00292511 0.000154344)
(1.0036 -0.00300137 0.000134713)
(1.00421 -0.00304726 0.000114749)
(1.00482 -0.0030648 9.47329e-05)
(1.00542 -0.00305568 7.5038e-05)
(1.00601 -0.00301778 5.55215e-05)
(1.00655 -0.0029512 3.85496e-05)
(1.00728 -0.00280957 2.16546e-05)
(1.00008 0.000164574 0.000201834)
(0.999668 0.000206486 0.000214173)
(0.999209 1.86288e-05 0.000224354)
(0.998992 -0.00027459 0.000236171)
(0.999002 -0.000682648 0.00024543)
(0.999178 -0.00118263 0.000251293)
(0.999493 -0.0017004 0.000251891)
(0.999922 -0.00218185 0.000247139)
(1.00044 -0.00260416 0.000237585)
(1.00102 -0.00295748 0.000223838)
(1.00164 -0.00323791 0.000206734)
(1.00227 -0.00344708 0.000187153)
(1.0029 -0.00359072 0.000165876)
(1.00351 -0.00367663 0.000143594)
(1.00407 -0.00371342 0.000120911)
(1.0046 -0.00370919 9.82863e-05)
(1.00509 -0.00367159 7.61884e-05)
(1.00555 -0.00360123 5.46032e-05)
(1.00596 -0.00350459 3.56938e-05)
(1.0065 -0.0032971 1.54651e-05)
(1.00002 0.000676256 0.000229083)
(0.999207 0.000152385 0.000271488)
(0.99854 -0.00113941 0.00030554)
(0.998187 -0.00213074 0.000337847)
(0.998067 -0.00272651 0.00036385)
(0.998232 -0.00312337 0.000376049)
(0.998688 -0.00343465 0.000373137)
(0.999341 -0.00370355 0.000358446)
(1.00009 -0.00394139 0.000334827)
(1.00086 -0.00414055 0.000304991)
(1.00161 -0.00428879 0.000271707)
(1.00228 -0.00437923 0.000237094)
(1.00286 -0.00441222 0.000202545)
(1.00333 -0.00439362 0.000168997)
(1.00371 -0.00433272 0.000137062)
(1.00399 -0.00423985 0.000107072)
(1.0042 -0.00412713 7.92494e-05)
(1.00435 -0.00399646 5.35699e-05)
(1.00448 -0.00386837 3.14975e-05)
(1.00467 -0.0036022 7.50648e-06)
(0.998457 0.00325636 0.000193075)
(0.995123 0.00668521 0.000189206)
(0.994341 0.00715296 0.000202587)
(0.995263 0.00570102 0.000241184)
(0.996559 0.00348424 0.000290025)
(0.997858 0.00124891 0.000320692)
(0.999121 -0.000680379 0.000330311)
(1.00027 -0.00221001 0.000325913)
(1.00124 -0.0033376 0.000310736)
(1.00199 -0.0041016 0.000286999)
(1.0025 -0.00456283 0.000257591)
(1.00279 -0.00478861 0.000225053)
(1.00286 -0.00484148 0.000191251)
(1.00276 -0.00477461 0.000157591)
(1.0025 -0.00463158 0.000125128)
(1.00213 -0.00444685 9.45458e-05)
(1.00169 -0.00425231 6.6266e-05)
(1.00121 -0.00405921 4.11698e-05)
(1.00079 -0.00392181 2.03476e-05)
(1.00034 -0.00363513 -1.35321e-06)
(0.999755 -0.0100169 0.000453397)
(0.997224 -0.0187471 0.000421126)
(0.994996 -0.0193295 0.000444373)
(0.994681 -0.0170519 0.000596661)
(0.996284 -0.0143973 0.000772209)
(0.998622 -0.0119436 0.000870797)
(1.00076 -0.0098562 0.000882137)
(1.00226 -0.0082171 0.0008298)
(1.00302 -0.00698616 0.000738752)
(1.00309 -0.00605689 0.000629421)
(1.00257 -0.00533145 0.000516633)
(1.0016 -0.00474373 0.000409637)
(1.00031 -0.00425329 0.000313361)
(0.99882 -0.00383673 0.000229843)
(0.997228 -0.00348343 0.000159366)
(0.995612 -0.00319026 0.00010087)
(0.994041 -0.00297178 5.25168e-05)
(0.992521 -0.00282542 1.53628e-05)
(0.991311 -0.00287665 -1.1691e-05)
(0.989919 -0.0028913 -2.31553e-05)
(1.00064 0.0555909 0.000289671)
(1.00923 0.0561042 0.000281675)
(1.01449 0.0402382 0.000312744)
(1.01392 0.0257842 0.00030132)
(1.00984 0.0147423 0.00016838)
(1.00442 0.00689507 1.34207e-05)
(0.998397 0.00166041 -0.000103943)
(0.992135 -0.00162844 -0.000177809)
(0.985983 -0.00354019 -0.000216535)
(0.980184 -0.00450252 -0.000228152)
(0.974854 -0.00483414 -0.00022116)
(0.970029 -0.00477294 -0.000204257)
(0.965712 -0.00449055 -0.000184392)
(0.961877 -0.00410465 -0.000166019)
(0.958483 -0.00369352 -0.000151588)
(0.955459 -0.00330616 -0.000141535)
(0.952772 -0.00298294 -0.000135866)
(0.950182 -0.00273548 -0.000127379)
(0.948142 -0.00268406 -0.000116445)
(0.944423 -0.00258124 -6.06775e-05)
(0.999797 -0.055553 0.000178307)
(1.00844 -0.0563392 0.000405756)
(1.01404 -0.0411534 0.00047403)
(1.01394 -0.02764 0.000467133)
(1.01053 -0.0175429 0.000413382)
(1.00594 -0.0104296 0.000340869)
(1.00087 -0.00561198 0.0002712)
(0.995618 -0.00240953 0.000210216)
(0.990454 -0.000299049 0.000158607)
(0.985564 0.00107087 0.000117156)
(0.981012 0.00193488 8.51017e-05)
(0.976806 0.00245494 5.97442e-05)
(0.972936 0.00274336 3.79614e-05)
(0.969381 0.00287727 1.7286e-05)
(0.966119 0.0029114 -4.03207e-06)
(0.963101 0.00288454 -2.64741e-05)
(0.960333 0.00283858 -4.91661e-05)
(0.957579 0.00278609 -6.80449e-05)
(0.955405 0.00287078 -7.14269e-05)
(0.951404 0.00280179 -6.6505e-05)
(0.999648 0.0102929 0.00023766)
(0.996994 0.0192212 0.000302052)
(0.994734 0.0200386 0.00034994)
(0.994259 0.0181647 0.000412164)
(0.995622 0.0159112 0.000490343)
(0.997839 0.0136771 0.000570889)
(1.0001 0.0115697 0.000639418)
(1.00201 0.00972726 0.000685539)
(1.0034 0.0082084 0.000703985)
(1.00425 0.00698946 0.00069509)
(1.00457 0.00602067 0.000662956)
(1.00442 0.00525312 0.000613115)
(1.00387 0.00464296 0.000551179)
(1.00301 0.00415294 0.000482129)
(1.00191 0.00375622 0.000409666)
(1.00065 0.00343459 0.000336873)
(0.999322 0.00319313 0.000265771)
(0.997931 0.00301475 0.000196614)
(0.996806 0.00303512 0.000130585)
(0.995402 0.00297821 4.63575e-05)
(0.998311 -0.00330747 0.000146658)
(0.994981 -0.00667572 0.00017477)
(0.994223 -0.00724276 0.000201097)
(0.995119 -0.00616754 0.000226381)
(0.996376 -0.00446058 0.000249982)
(0.997644 -0.00268384 0.000270601)
(0.998906 -0.00105699 0.000287369)
(1.00011 0.000351101 0.000301153)
(1.0012 0.00151404 0.000310669)
(1.00214 0.00242675 0.000313806)
(1.00291 0.00310609 0.000309542)
(1.0035 0.00358305 0.000297768)
(1.0039 0.00389272 0.000278935)
(1.00412 0.00406886 0.000253962)
(1.00417 0.00414282 0.00022398)
(1.00409 0.0041415 0.000190156)
(1.00389 0.00409454 0.000153535)
(1.00361 0.00400847 0.000113983)
(1.00334 0.00395208 7.39009e-05)
(1.003 0.00368419 2.0482e-05)
(0.999883 -0.000664426 0.000166009)
(0.999074 -0.000121642 0.000220838)
(0.998501 0.00116265 0.000252695)
(0.998263 0.00216594 0.000279962)
(0.998214 0.00277131 0.000307267)