/*--------------------------------*- C++ -*----------------------------------*\
  =========                 |
  \\      /  F ield         | OpenFOAM: The Open Source CFD Toolbox
   \\    /   O peration     | Website:  https://openfoam.org
    \\  /    A nd           | Version:  9
     \\/     M anipulation  |
\*---------------------------------------------------------------------------*/
FoamFile
{
    format      ascii;
    class       volScalarField;
    location    "600";
    object      p;
}
// * * * * * * * * * * * * * * * * * * * * * * * * * * * * * * * * * * * * * //

dimensions      [0 2 -2 0 0 0 0];

internalField   nonuniform List<scalar> 
8000
(
0.0642394
0.0446725
0.0299848
0.0229868
0.0185629
0.0146148
0.0114047
0.00908621
0.00739733
0.0060886
0.0050367
0.00416765
0.00341752
0.0027374
0.0020993
0.00148879
0.000920207
0.000384182
9.47833e-05
-0.000488213
-0.00712353
-0.00394364
0.000726205
0.00482537
0.00769615
0.00935412
0.010105
0.0102355
0.00992268
0.0093054
0.00851028
0.00763016
0.00671912
0.00580584
0.00490657
0.00402358
0.00316185
0.00229238
0.00150499
0.000308578
0.00695348
0.0128281
0.0152466
0.0148296
0.0139775
0.0131206
0.0121527
0.0111388
0.0101484
0.00919011
0.00826107
0.00736144
0.00648817
0.00563503
0.00479608
0.00396356
0.00313386
0.00228425
0.00145029
0.000387834
0.00867178
0.00943957
0.0097962
0.00975564
0.00978847
0.0097928
0.00960759
0.00925801
0.00879946
0.00825381
0.0076371
0.00696838
0.00626251
0.00552836
0.00477106
0.00399195
0.00319049
0.00235748
0.00149174
0.000557686
0.00887026
0.00917917
0.0097377
0.0100256
0.0100371
0.00987367
0.00955947
0.00912734
0.00861554
0.00804493
0.00742771
0.00677445
0.00609264
0.00538628
0.0046571
0.00390505
0.00312804
0.00232474
0.00147841
0.000689333
0.0088545
0.008975
0.00924842
0.0093685
0.00931081
0.00915142
0.00889898
0.00855209
0.00812607
0.00763574
0.00709119
0.00650118
0.00587299
0.00521173
0.00452066
0.0038018
0.00305482
0.00228508
0.00146981
0.000786964
0.00874846
0.0087849
0.00893342
0.00901095
0.00896462
0.00882083
0.00858671
0.00826446
0.00786608
0.00740422
0.00688818
0.00632565
0.00572317
0.00508575
0.00441694
0.00371972
0.00299473
0.00225101
0.00146273
0.000848458
0.00862894
0.00862928
0.00871488
0.00875241
0.00869177
0.00854469
0.00831839
0.00801509
0.00764157
0.0072063
0.00671661
0.006179
0.00559935
0.0049826
0.00433276
0.00365362
0.00294675
0.00222338
0.00145614
0.000883152
0.00853681
0.00852176
0.00857644
0.00859022
0.00852101
0.00837438
0.00815448
0.00786264
0.00750343
0.00708339
0.00660893
0.00608598
0.00552002
0.00491598
0.00427808
0.00361059
0.00291558
0.00220531
0.00145159
0.000900905
0.00848783
0.00846668
0.00850843
0.00851125
0.00843739
0.00829032
0.00807274
0.00778575
0.00743316
0.00702055
0.00655373
0.00603823
0.00547932
0.00488186
0.00425015
0.00358869
0.00289976
0.00219605
0.00144902
0.0009081
0.00848783
0.00846668
0.00850843
0.00851125
0.00843739
0.00829032
0.00807274
0.00778575
0.00743316
0.00702055
0.00655372
0.00603823
0.00547932
0.00488186
0.00425015
0.00358869
0.00289976
0.00219605
0.00144902
0.0009081
0.00853681
0.00852176
0.00857644
0.00859022
0.00852101
0.00837438
0.00815448
0.00786264
0.00750343
0.00708339
0.00660893
0.00608598
0.00552002
0.00491598
0.00427808
0.00361059
0.00291558
0.00220531
0.00145159
0.000900905
0.00862894
0.00862928
0.00871488
0.00875241
0.00869177
0.00854469
0.00831839
0.00801509
0.00764157
0.0072063
0.00671661
0.006179
0.00559935
0.0049826
0.00433275
0.00365362
0.00294675
0.00222338
0.00145614
0.000883151
0.00874846
0.0087849
0.00893342
0.00901095
0.00896462
0.00882083
0.00858671
0.00826446
0.00786607
0.00740422
0.00688818
0.00632565
0.00572317
0.00508575
0.00441694
0.00371972
0.00299472
0.00225101
0.00146272
0.000848456
0.0088545
0.008975
0.00924842
0.0093685
0.00931081
0.00915142
0.00889898
0.00855209
0.00812607
0.00763574
0.00709119
0.00650117
0.00587298
0.00521173
0.00452065
0.00380179
0.00305482
0.00228508
0.00146981
0.000786961
0.00887026
0.00917917
0.0097377
0.0100256
0.0100371
0.00987367
0.00955947
0.00912734
0.00861554
0.00804493
0.00742771
0.00677444
0.00609264
0.00538628
0.0046571
0.00390505
0.00312804
0.00232474
0.00147841
0.000689329
0.00867178
0.00943957
0.0097962
0.00975564
0.00978846
0.0097928
0.00960759
0.00925801
0.00879946
0.00825381
0.00763709
0.00696838
0.00626251
0.00552836
0.00477105
0.00399195
0.00319048
0.00235747
0.00149174
0.000557681
0.00695347
0.0128281
0.0152466
0.0148296
0.0139775
0.0131206
0.0121527
0.0111388
0.0101484
0.00919011
0.00826107
0.00736144
0.00648817
0.00563503
0.00479608
0.00396355
0.00313386
0.00228424
0.00145028
0.000387827
-0.00712354
-0.00394364
0.000726204
0.00482537
0.00769615
0.00935412
0.010105
0.0102355
0.00992267
0.0093054
0.00851028
0.00763016
0.00671912
0.00580584
0.00490657
0.00402358
0.00316184
0.00229237
0.00150498
0.000308561
0.0642394
0.0446725
0.0299848
0.0229868
0.0185629
0.0146148
0.0114047
0.00908621
0.00739733
0.00608859
0.0050367
0.00416765
0.00341752
0.0027374
0.0020993
0.00148879
0.000920216
0.000384198
9.48036e-05
-0.000488193
0.0632069
0.0444188
0.0297912
0.0228195
0.0187207
0.0151191
0.012133
0.00991757
0.0082447
0.00689427
0.0057682
0.00481326
0.00397945
0.00322526
0.00252545
0.00186498
0.00125834
0.00068101
0.000355813
-0.000374923
-0.00901701
-0.00526125
-0.000574337
0.00294078
0.00514705
0.00650904
0.00735087
0.00782299
0.0079696
0.00783156
0.00747448
0.00696182
0.00634026
0.00564362
0.00489761
0.00411983
0.00333163
0.00250028
0.00172434
0.000440371
0.00614945
0.0122096
0.014645
0.0140851
0.0130088
0.0120036
0.0109897
0.0100064
0.00910442
0.00827325
0.00748848
0.00673388
0.00599666
0.0052658
0.00453355
0.00379291
0.0030419
0.00225313
0.00146084
0.000422966
0.00774756
0.00857002
0.00883024
0.00864901
0.00855557
0.00849239
0.00830709
0.00801344
0.00765355
0.00723376
0.00675479
0.00622455
0.00565119
0.00503991
0.00439418
0.00371509
0.00300208
0.00224482
0.00143468
0.000561184
0.00809269
0.0085802
0.00914496
0.00937942
0.00932522
0.00910006
0.00874628
0.00830389
0.00781059
0.00728287
0.00672649
0.00614574
0.00554307
0.00491864
0.00427136
0.0035992
0.00289797
0.00216534
0.00137093
0.000655615
0.00817984
0.00847579
0.00873052
0.0087714
0.00864595
0.00843745
0.00815778
0.00780617
0.00739594
0.00693891
0.00644136
0.00590822
0.00534359
0.00475009
0.00412887
0.00348037
0.00280197
0.00209865
0.00133047
0.000724981
0.00813911
0.00835589
0.00849694
0.00851069
0.00841544
0.00823647
0.00797857
0.0076459
0.0072512
0.00680643
0.00631924
0.0057953
0.00523919
0.00465412
0.00404195
0.0034041
0.00273879
0.00205482
0.00130712
0.000768313
0.0080632
0.00824737
0.00833061
0.00830735
0.00820023
0.00802014
0.0077706
0.00745539
0.00708199
0.00665829
0.0061905
0.00568377
0.00514255
0.00457046
0.00397007
0.00334386
0.00269103
0.00202272
0.00129151
0.000791971
0.00799789
0.00816813
0.0082235
0.00817926
0.00806654
0.00788993
0.00764855
0.00734461
0.0069835
0.00657153
0.00611441
0.00561721
0.00508441
0.00451983
0.0039265
0.00330747
0.00266252
0.0020039
0.00128301
0.000804058
0.00796165
0.00812632
0.00817022
0.00811636
0.00800016
0.0078241
0.00758546
0.00728609
0.00693068
0.00652468
0.00607334
0.00558148
0.00505349
0.00449326
0.00390396
0.00328894
0.00264822
0.00199453
0.00127884
0.000808854
0.00796165
0.00812632
0.00817022
0.00811636
0.00800016
0.00782409
0.00758546
0.00728609
0.00693068
0.00652468
0.00607334
0.00558148
0.00505349
0.00449326
0.00390396
0.00328893
0.00264822
0.00199453
0.00127884
0.000808854
0.00799789
0.00816813
0.0082235
0.00817925
0.00806654
0.00788993
0.00764854
0.00734461
0.0069835
0.00657153
0.00611441
0.00561721
0.00508441
0.00451983
0.0039265
0.00330747
0.00266251
0.00200389
0.00128301
0.000804057
0.0080632
0.00824737
0.00833061
0.00830735
0.00820023
0.00802013
0.0077706
0.00745539
0.00708199
0.00665829
0.0061905
0.00568376
0.00514255
0.00457046
0.00397007
0.00334386
0.00269103
0.00202272
0.0012915
0.00079197
0.00813911
0.00835589
0.00849694
0.00851069
0.00841544
0.00823647
0.00797857
0.0076459
0.0072512
0.00680643
0.00631924
0.0057953
0.00523919
0.00465412
0.00404195
0.0034041
0.00273879
0.00205482
0.00130712
0.000768311
0.00817984
0.00847579
0.00873052
0.00877139
0.00864595
0.00843745
0.00815778
0.00780617
0.00739594
0.00693891
0.00644136
0.00590822
0.00534359
0.00475008
0.00412887
0.00348036
0.00280196
0.00209864
0.00133047
0.000724978
0.00809269
0.0085802
0.00914496
0.00937942
0.00932522
0.00910005
0.00874627
0.00830389
0.00781059
0.00728287
0.00672649
0.00614574
0.00554306
0.00491864
0.00427135
0.0035992
0.00289797
0.00216534
0.00137092
0.000655611
0.00774756
0.00857002
0.00883024
0.00864901
0.00855557
0.00849238
0.00830709
0.00801344
0.00765355
0.00723376
0.00675479
0.00622455
0.00565118
0.00503991
0.00439418
0.00371508
0.00300208
0.00224481
0.00143467
0.000561178
0.00614945
0.0122096
0.014645
0.0140851
0.0130088
0.0120036
0.0109897
0.0100063
0.00910442
0.00827325
0.00748848
0.00673388
0.00599665
0.0052658
0.00453355
0.0037929
0.00304189
0.00225313
0.00146083
0.000422958
-0.00901701
-0.00526125
-0.000574337
0.00294078
0.00514705
0.00650904
0.00735086
0.00782299
0.0079696
0.00783155
0.00747448
0.00696182
0.00634026
0.00564361
0.00489761
0.00411982
0.00333162
0.00250026
0.00172432
0.00044035
0.0632069
0.0444188
0.0297912
0.0228195
0.0187207
0.0151191
0.012133
0.00991757
0.0082447
0.00689427
0.0057682
0.00481326
0.00397945
0.00322526
0.00252545
0.00186498
0.00125835
0.000681026
0.000355833
-0.000374904
0.062944
0.0436834
0.028892
0.0219359
0.0179758
0.014568
0.0117672
0.00970691
0.00815415
0.00688734
0.00581253
0.00488583
0.0040675
0.0033242
0.00263662
0.00199195
0.00140463
0.000839649
0.000512227
-0.000277586
-0.00978867
-0.00608781
-0.00150124
0.00182202
0.00374974
0.00481356
0.00540283
0.00571234
0.00580702
0.00572483
0.0055125
0.00520825
0.00483328
0.0043992
0.0039156
0.00338679
0.00282553
0.00219268
0.00158181
0.000446954
0.0057466
0.0117748
0.0141231
0.0134708
0.0122997
0.0112073
0.010118
0.00906734
0.00811332
0.00725655
0.00647884
0.00576493
0.0050992
0.00446489
0.00384737
0.00323244
0.00261182
0.00195426
0.00128468
0.000397752
0.00722884
0.00790123
0.00805654
0.00778454
0.00759003
0.00743032
0.00716926
0.00682501
0.00644384
0.00603495
0.00559759
0.00513599
0.00465381
0.00415132
0.00362705
0.00307781
0.00249938
0.00188106
0.00120677
0.000496817
0.00759807
0.00796193
0.00845153
0.00863145
0.00852902
0.00825998
0.00786872
0.00739645
0.00688364
0.00635119
0.0058081
0.00526
0.00470919
0.00415431
0.00359185
0.0030173
0.00242367
0.00180898
0.00113492
0.000556284
0.00771094
0.0078782
0.00805425
0.00803878
0.00786099
0.00760391
0.00728572
0.00690923
0.00648872
0.00603684
0.00556025
0.00506354
0.0045501
0.00402147
0.00347747
0.00291724
0.00233644
0.00174121
0.00108462
0.000593774
0.00769679
0.00778952
0.00785956
0.00782756
0.00769219
0.00747711
0.00719037
0.00683841
0.00643507
0.00599347
0.00552215
0.00502712
0.00451283
0.00398205
0.00343584
0.00287483
0.00229585
0.00170893
0.0010626
0.000617962
0.00764253
0.00770729
0.00772393
0.00765915
0.00751531
0.0073013
0.0070238
0.00668946
0.00630733
0.0058863
0.00543318
0.00495326
0.00445079
0.00392891
0.00338954
0.00283455
0.00226191
0.00168403
0.00104771
0.000629834
0.00759209
0.00764646
0.00763838
0.00755574
0.00740944
0.00720187
0.00693485
0.0066131
0.00624355
0.00583351
0.00538943
0.00491664
0.00441958
0.00390174
0.00336557
0.0028136
0.00224447
0.00167166
0.00104113
0.000636267
0.00756335
0.00761401
0.00759607
0.00750531
0.00735689
0.00715099
0.00688741
0.00657042
0.00620635
0.00580177
0.00536264
0.00489415
0.00440063
0.00388566
0.00335187
0.0028021
0.00223525
0.00166527
0.00103784
0.00063871
0.00756335
0.00761401
0.00759607
0.00750531
0.00735689
0.00715099
0.00688741
0.00657042
0.00620635
0.00580177
0.00536264
0.00489415
0.00440063
0.00388566
0.00335187
0.0028021
0.00223525
0.00166527
0.00103784
0.000638709
0.00759209
0.00764646
0.00763838
0.00755574
0.00740944
0.00720187
0.00693485
0.0066131
0.00624355
0.00583351
0.00538943
0.00491664
0.00441958
0.00390174
0.00336557
0.0028136
0.00224447
0.00167166
0.00104113
0.000636266
0.00764253
0.00770729
0.00772393
0.00765915
0.00751531
0.0073013
0.0070238
0.00668946
0.00630733
0.0058863
0.00543318
0.00495326
0.00445079
0.00392891
0.00338954
0.00283455
0.00226191
0.00168403
0.00104771
0.000629832
0.00769679
0.00778952
0.00785956
0.00782756
0.00769219
0.00747711
0.00719037
0.00683841
0.00643507
0.00599347
0.00552215
0.00502712
0.00451283
0.00398205
0.00343583
0.00287483
0.00229584
0.00170893
0.0010626
0.00061796
0.00771094
0.0078782
0.00805425
0.00803878
0.00786099
0.00760391
0.00728572
0.00690923
0.00648872
0.00603683
0.00556025
0.00506354
0.0045501
0.00402147
0.00347747
0.00291724
0.00233644
0.0017412
0.00108461
0.000593771
0.00759807
0.00796193
0.00845153
0.00863145
0.00852902
0.00825998
0.00786872
0.00739644
0.00688364
0.00635119
0.0058081
0.00526
0.00470919
0.00415431
0.00359185
0.00301729
0.00242367
0.00180898
0.00113491
0.000556281
0.00722884
0.00790123
0.00805654
0.00778454
0.00759003
0.00743032
0.00716926
0.00682501
0.00644384
0.00603495
0.00559759
0.00513599
0.00465381
0.00415132
0.00362705
0.0030778
0.00249937
0.00188105
0.00120676
0.000496811
0.0057466
0.0117748
0.0141231
0.0134708
0.0122997
0.0112073
0.010118
0.00906734
0.00811332
0.00725655
0.00647884
0.00576493
0.00509919
0.00446489
0.00384737
0.00323244
0.00261181
0.00195425
0.00128467
0.000397746
-0.00978867
-0.00608781
-0.00150124
0.00182202
0.00374973
0.00481356
0.00540283
0.00571233
0.00580702
0.00572483
0.0055125
0.00520824
0.00483327
0.0043992
0.00391559
0.00338678
0.00282551
0.00219266
0.00158178
0.000446935
0.062944
0.0436834
0.028892
0.0219359
0.0179758
0.014568
0.0117672
0.00970691
0.00815415
0.00688734
0.00581253
0.00488583
0.00406749
0.0033242
0.00263662
0.00199195
0.00140464
0.000839661
0.000512241
-0.000277571
0.0624093
0.0429969
0.0281461
0.0212116
0.0173083
0.0139631
0.0112195
0.00921352
0.00771583
0.00650484
0.00548587
0.00461522
0.00385361
0.00316791
0.00253884
0.0019531
0.00142236
0.000908545
0.000595218
-0.0001573
-0.0104217
-0.00679445
-0.00228743
0.000968287
0.00283099
0.003829
0.00435031
0.00459229
0.00462555
0.00449413
0.00425036
0.00393739
0.00357987
0.00319093
0.00278023
0.00235089
0.00191412
0.00143565
0.00100722
0.000204488
0.00521759
0.0112158
0.0135296
0.0128545
0.0116681
0.0105608
0.00945496
0.00838499
0.00740985
0.00653271
0.00573828
0.00501492
0.00435126
0.00373455
0.00315331
0.00259571
0.0020549
0.00150564
0.000967308
0.000297671
0.00668206
0.00728501
0.00738558
0.00707392
0.0068437
0.00665201
0.00636455
0.00599846
0.00559966
0.00517891
0.00473753
0.00428198
0.00381849
0.00334969
0.00287603
0.00239614
0.00190727
0.0014042
0.000869467
0.000366084
0.00706196
0.00736618
0.00781279
0.00796206
0.00783282
0.00754304
0.00713865
0.00665949
0.00614424
0.00561314
0.00507559
0.00453854
0.00400647
0.00348068
0.00296025
0.0024433
0.00192488
0.00140759
0.000852667
0.00042473
0.00718351
0.00728661
0.00741799
0.00737515
0.00717362
0.00689527
0.00656043
0.00617306
0.00574787
0.00529804
0.0048309
0.00435161
0.00386439
0.00337195
0.0028754
0.00237554
0.0018694
0.00136637
0.000820551
0.000447636
0.0071809
0.00720931
0.0072368
0.00718135
0.00702586
0.00679268
0.00649261
0.00613329
0.00572874
0.00529234
0.00483313
0.00435763
0.00387099
0.00337688
0.00287738
0.00237445
0.00186586
0.00136384
0.000818738
0.00046577
0.00713746
0.00713784
0.00711245
0.00702568
0.00686349
0.00663283
0.00634279
0.00600121
0.00561771
0.00520184
0.00476117
0.00430158
0.00382786
0.00334375
0.00285175
0.00235457
0.0018507
0.00135398
0.000813509
0.000473106
0.00709513
0.0070854
0.00703581
0.00693229
0.00676904
0.00654612
0.00626765
0.00593958
0.00556938
0.00516506
0.00473379
0.00428155
0.0038133
0.00333307
0.00284381
0.00234867
0.00184659
0.00135207
0.000813587
0.000478046
0.00707071
0.00705747
0.0069983
0.00688712
0.00672235
0.00650164
0.00622702
0.00590396
0.00553936
0.00514049
0.00471414
0.00426613
0.00380138
0.00332394
0.00283686
0.00234351
0.00184298
0.00135004
0.000812962
0.000479861
0.00707071
0.00705747
0.0069983
0.00688712
0.00672235
0.00650164
0.00622702
0.00590396
0.00553936
0.00514049
0.00471414
0.00426613
0.00380138
0.00332394
0.00283686
0.00234351
0.00184298
0.00135004
0.000812962
0.000479861
0.00709513
0.0070854
0.00703581
0.00693229
0.00676904
0.00654612
0.00626765
0.00593958
0.00556938
0.00516506
0.00473379
0.00428155
0.0038133
0.00333307
0.00284381
0.00234867
0.00184659
0.00135207
0.000813586
0.000478046
0.00713746
0.00713784
0.00711245
0.00702568
0.00686349
0.00663283
0.00634279
0.00600121
0.00561771
0.00520184
0.00476117
0.00430158
0.00382786
0.00334374
0.00285175
0.00235457
0.0018507
0.00135398
0.000813508
0.000473105
0.0071809
0.00720931
0.0072368
0.00718135
0.00702586
0.00679268
0.00649261
0.00613329
0.00572874
0.00529234
0.00483313
0.00435763
0.00387099
0.00337688
0.00287738
0.00237445
0.00186586
0.00136384
0.000818737
0.000465769
0.00718351
0.00728661
0.00741799
0.00737515
0.00717362
0.00689527
0.00656043
0.00617306
0.00574787
0.00529804
0.00483089
0.00435161
0.00386439
0.00337195
0.00287539
0.00237554
0.0018694
0.00136636
0.000820549
0.000447634
0.00706196
0.00736617
0.00781279
0.00796206
0.00783282
0.00754303
0.00713865
0.00665949
0.00614424
0.00561314
0.00507559
0.00453854
0.00400647
0.00348068
0.00296025
0.0024433
0.00192488
0.00140759
0.000852664
0.000424727
0.00668206
0.00728501
0.00738558
0.00707391
0.0068437
0.00665201
0.00636454
0.00599846
0.00559966
0.00517891
0.00473753
0.00428198
0.00381849
0.00334969
0.00287602
0.00239614
0.00190726
0.00140419
0.000869462
0.000366081
0.00521759
0.0112158
0.0135296
0.0128545
0.0116681
0.0105608
0.00945496
0.00838499
0.00740985
0.00653271
0.00573828
0.00501492
0.00435126
0.00373455
0.0031533
0.0025957
0.00205489
0.00150563
0.000967302
0.000297668
-0.0104217
-0.00679445
-0.00228743
0.000968287
0.00283099
0.003829
0.00435031
0.00459229
0.00462555
0.00449412
0.00425036
0.00393739
0.00357987
0.00319093
0.00278022
0.00235089
0.00191411
0.00143563
0.00100721
0.000204476
0.0624093
0.0429969
0.0281461
0.0212116
0.0173083
0.0139631
0.0112195
0.00921352
0.00771583
0.00650484
0.00548586
0.00461522
0.00385361
0.00316791
0.00253884
0.0019531
0.00142236
0.000908551
0.000595226
-0.000157291
0.061876
0.0424144
0.0275479
0.0206319
0.0167586
0.0134426
0.010727
0.00875017
0.00728446
0.00610816
0.00512666
0.00429695
0.00358049
0.00294456
0.00236976
0.00184228
0.00137035
0.000915177
0.000627578
-6.46559e-05
-0.0109675
-0.00736859
-0.00288706
0.000352769
0.00220167
0.00318635
0.00369552
0.00392698
0.00395121
0.00381207
0.00356243
0.00324682
0.0028918
0.00251252
0.00212075
0.00172238
0.00133157
0.000924541
0.000598227
2.14144e-05
0.00469737
0.0106727
0.0129731
0.0122995
0.0111223
0.0100268
0.00893251
0.00787251
0.0069056
0.00603546
0.00524765
0.00453182
0.00387837
0.0032766
0.00271738
0.00219189
0.00169639
0.00121366
0.000759826
0.000240049
0.00616214
0.00673485
0.00681308
0.00648885
0.00624988
0.00605285
0.00576444
0.00540167
0.00500971
0.00459866
0.00416938
0.00372842
0.00328271
0.00283623
0.00239131
0.00194934
0.00151061
0.0010766
0.000631771
0.000268187
0.00654875
0.00682581
0.00725432
0.00739475
0.00725981
0.00696812
0.00656676
0.00609507
0.00559092
0.00507402
0.00455345
0.00403611
0.00352686
0.00302784
0.00253948
0.00206202
0.00159288
0.00113907
0.000664602
0.00033267
0.00667509
0.00674938
0.00686158
0.00680991
0.0066029
0.00632233
0.00598964
0.00560863
0.00519349
0.00475725
0.00430726
0.0038489
0.00338678
0.00292424
0.00246332
0.00200621
0.00155145
0.00111089
0.000642834
0.000344538
0.00667791
0.00667681
0.00668535
0.00662194
0.00646148
0.00622621
0.0059286
0.00557638
0.00518304
0.00476171
0.00432141
0.0038688
0.00340932
0.00294715
0.00248505
0.00202596
0.0015687
0.00112668
0.000655118
0.000360141
0.00663943
0.00660948
0.00656471
0.00647002
0.006303
0.0060704
0.00578302
0.00544877
0.00507672
0.00467621
0.00425481
0.00381863
0.00337275
0.00292141
0.00246765
0.0020149
0.00156234
0.00112427
0.000654991
0.000364681
0.00660089
0.00656027
0.00649103
0.00637968
0.00621183
0.00598715
0.00571152
0.00539102
0.00503264
0.00464413
0.00423267
0.00380441
0.00336458
0.00291763
0.00246695
0.0020163
0.00156513
0.00112808
0.000658899
0.000369001
0.00657851
0.0065341
0.00645512
0.00633612
0.00616681
0.00594441
0.00567269
0.0053573
0.00500464
0.00462174
0.00421537
0.00379153
0.00335537
0.00291136
0.00246296
0.00201408
0.00156424
0.00112822
0.000659589
0.000370465
0.00657851
0.0065341
0.00645512
0.00633612
0.00616681
0.00594441
0.00567269
0.0053573
0.00500464
0.00462174
0.00421537
0.00379153
0.00335537
0.00291136
0.00246296
0.00201408
0.00156424
0.00112822
0.000659589
0.000370465
0.00660089
0.00656027
0.00649103
0.00637968
0.00621183
0.00598715
0.00571152
0.00539102
0.00503264
0.00464413
0.00423267
0.00380441
0.00336458
0.00291763
0.00246695
0.0020163
0.00156513
0.00112808
0.000658899
0.000369001
0.00663943
0.00660948
0.00656471
0.00647002
0.006303
0.0060704
0.00578302
0.00544877
0.00507672
0.00467621
0.00425481
0.00381863
0.00337275
0.0029214
0.00246765
0.00201489
0.00156234
0.00112427
0.00065499
0.00036468
0.00667791
0.00667681
0.00668535
0.00662194
0.00646148
0.0062262
0.0059286
0.00557638
0.00518304
0.00476171
0.00432141
0.0038688
0.00340932
0.00294715
0.00248505
0.00202596
0.0015687
0.00112668
0.000655117
0.00036014
0.00667509
0.00674938
0.00686157
0.00680991
0.0066029
0.00632233
0.00598964
0.00560863
0.00519349
0.00475724
0.00430726
0.0038489
0.00338678
0.00292424
0.00246332
0.00200621
0.00155145
0.00111089
0.000642833
0.000344537
0.00654875
0.00682581
0.00725432
0.00739475
0.00725981
0.00696812
0.00656676
0.00609507
0.00559092
0.00507402
0.00455344
0.00403611
0.00352686
0.00302784
0.00253948
0.00206202
0.00159288
0.00113907
0.0006646
0.000332669
0.00616214
0.00673485
0.00681308
0.00648885
0.00624988
0.00605285
0.00576444
0.00540167
0.00500971
0.00459865
0.00416938
0.00372842
0.00328271
0.00283623
0.00239131
0.00194933
0.00151061
0.00107659
0.000631769
0.000268186
0.00469737
0.0106727
0.0129731
0.0122995
0.0111223
0.0100268
0.00893251
0.00787251
0.0069056
0.00603546
0.00524765
0.00453182
0.00387837
0.0032766
0.00271738
0.00219189
0.00169639
0.00121366
0.000759823
0.000240048
-0.0109675
-0.00736859
-0.00288706
0.000352769
0.00220167
0.00318635
0.00369552
0.00392698
0.00395121
0.00381207
0.00356242
0.00324682
0.0028918
0.00251251
0.00212075
0.00172237
0.00133156
0.000924535
0.00059822
2.14095e-05
0.061876
0.0424144
0.0275479
0.0206319
0.0167586
0.0134426
0.010727
0.00875017
0.00728446
0.00610816
0.00512666
0.00429695
0.00358049
0.00294456
0.00236976
0.00184228
0.00137036
0.00091518
0.000627582
-6.46518e-05
0.0614313
0.0419586
0.0270938
0.020192
0.0163364
0.013038
0.010341
0.00838592
0.00694519
0.00579677
0.00484585
0.00404953
0.00336936
0.00277255
0.00223935
0.00175538
0.00132651
0.000912343
0.000647761
-1.9796e-05
-0.0114109
-0.00781741
-0.00333587
-9.08263e-05
0.0017631
0.00275207
0.00326627
0.00350449
0.00353737
0.00340864
0.00317118
0.00286972
0.0025312
0.00217118
0.00180204
0.00143072
0.00107263
0.000708806
0.000436761
-3.68942e-05
0.00426024
0.0102282
0.0125282
0.0118626
0.0106973
0.00961562
0.00853688
0.0074935
0.00654404
0.00569212
0.00492341
0.00422778
0.00359609
0.00301822
0.00248573
0.00199094
0.00153096
0.00109186
0.000684004
0.000234993
0.00572615
0.00628978
0.00636482
0.00604334
0.0058092
0.00561855
0.00533866
0.00498687
0.00460843
0.00421345
0.00380273
0.00338272
0.00296043
0.00254003
0.00212422
0.00171512
0.00131383
0.000924028
0.000529425
0.000231128
0.00611597
0.00638425
0.00680996
0.00695362
0.00682441
0.00654063
0.00614984
0.0056913
0.0052027
0.00470374
0.0042035
0.00370892
0.00322493
0.00275384
0.00229637
0.0018532
0.00142221
0.00101107
0.000584367
0.000296113
0.00624473
0.00630943
0.00641804
0.00636879
0.00616653
0.0058929
0.00557001
0.00520159
0.00480169
0.0043833
0.00395382
0.00351867
0.00308249
0.00264877
0.00221968
0.00179765
0.00138144
0.000982634
0.000561956
0.000298339
0.00624991
0.00623867
0.00624333
0.00618216
0.00602616
0.00579753
0.00550961
0.00517017
0.00479251
0.00438968
0.00397068
0.00354214
0.0031095
0.00267697
0.00224736
0.00182367
0.00140481
0.00100338
0.000577886
0.000310876
0.00621346
0.00617274
0.00612365
0.00603092
0.00586805
0.00564177
0.0053639
0.00504242
0.0046862
0.00430444
0.00390469
0.00349298
0.00307434
0.00265297
0.00223191
0.00181454
0.00140006
0.00100168
0.000577626
0.000312528
0.00617644
0.00612457
0.0060507
0.00594116
0.0057773
0.00555879
0.00529258
0.00498486
0.00464241
0.00427287
0.00388337
0.00347993
0.00306769
0.00265101
0.0022332
0.00181792
0.00140457
0.0010066
0.000581928
0.000315754
0.00615486
0.00609895
0.00601517
0.00589788
0.00573248
0.00551617
0.0052538
0.00495118
0.00461449
0.00425066
0.00386638
0.00346751
0.00305908
0.00264545
0.00222999
0.00181643
0.00140426
0.00100701
0.000582549
0.000316643
0.00615486
0.00609895
0.00601517
0.00589788
0.00573248
0.00551617
0.0052538
0.00495118
0.00461449
0.00425066
0.00386638
0.00346751
0.00305908
0.00264545
0.00222999
0.00181643
0.00140426
0.00100701
0.000582549
0.000316643
0.00617644
0.00612457
0.0060507
0.00594116
0.0057773
0.00555879
0.00529258
0.00498486
0.00464241
0.00427287
0.00388337
0.00347993
0.00306769
0.00265101
0.0022332
0.00181792
0.00140457
0.0010066
0.000581928
0.000315754
0.00621346
0.00617274
0.00612365
0.00603092
0.00586805
0.00564177
0.0053639
0.00504242
0.0046862
0.00430444
0.00390469
0.00349298
0.00307434
0.00265297
0.00223191
0.00181454
0.00140006
0.00100168
0.000577626
0.000312528
0.00624991
0.00623867
0.00624333
0.00618216
0.00602616
0.00579753
0.00550961
0.00517017
0.00479251
0.00438968
0.00397068
0.00354214
0.0031095
0.00267697
0.00224736
0.00182367
0.00140481
0.00100338
0.000577886
0.000310876
0.00624473
0.00630943
0.00641804
0.00636879
0.00616653
0.0058929
0.00557001
0.00520159
0.00480169
0.0043833
0.00395382
0.00351867
0.00308249
0.00264876
0.00221968
0.00179765
0.00138144
0.000982633
0.000561956
0.000298339
0.00611597
0.00638425
0.00680996
0.00695362
0.00682441
0.00654063
0.00614984
0.00569129
0.0052027
0.00470374
0.0042035
0.00370892
0.00322493
0.00275384
0.00229637
0.0018532
0.00142221
0.00101107
0.000584366
0.000296113
0.00572615
0.00628978
0.00636482
0.00604334
0.0058092
0.00561855
0.00533866
0.00498687
0.00460843
0.00421345
0.00380272
0.00338272
0.00296043
0.00254003
0.00212422
0.00171512
0.00131383
0.000924027
0.000529424
0.000231127
0.00426024
0.0102282
0.0125282
0.0118626
0.0106973
0.00961562
0.00853688
0.0074935
0.00654404
0.00569212
0.0049234
0.00422778
0.00359609
0.00301822
0.00248573
0.00199093
0.00153096
0.00109186
0.000684003
0.000234992
-0.0114109
-0.00781741
-0.00333587
-9.08265e-05
0.0017631
0.00275207
0.00326627
0.00350449
0.00353737
0.00340864
0.00317118
0.00286972
0.0025312
0.00217117
0.00180204
0.00143072
0.00107263
0.000708803
0.000436758
-3.68957e-05
0.0614313
0.0419586
0.0270938
0.020192
0.0163364
0.013038
0.010341
0.00838592
0.00694518
0.00579677
0.00484585
0.00404953
0.00336936
0.00277255
0.00223935
0.00175538
0.00132651
0.000912345
0.000647763
-1.97946e-05
0.0610926
0.0416227
0.026766
0.0198762
0.0160338
0.012749
0.0100671
0.00812948
0.00670858
0.00558213
0.0046552
0.0038848
0.00323236
0.00266476
0.00216171
0.00170795
0.00130765
0.00091803
0.000667832
4.52261e-07
-0.0117464
-0.00814916
-0.00365983
-0.000404834
0.00145886
0.00245767
0.00298263
0.00323296
0.00327937
0.00316559
0.00294448
0.00266082
0.00234149
0.00200196
0.00165448
0.00130591
0.000971452
0.000633037
0.000386038
-4.71829e-05
0.00392643
0.00989665
0.012203
0.0115472
0.0103932
0.00932431
0.00825978
0.0072321
0.0062997
0.00546613
0.00471696
0.00404205
0.00343219
0.0028772
0.00236855
0.00189849
0.00146366
0.00105049
0.00066409
0.00024309
0.0053931
0.00595833
0.00603876
0.00572561
0.00550113
0.00532126
0.00505352
0.00471532
0.00435196
0.00397359
0.00358102
0.00318067
0.00277948
0.00238153
0.00198938
0.001605
0.00122909
0.000865204
0.000495153
0.000222291
0.00578417
0.00605373
0.00648445
0.00663622
0.00651681
0.00624436
0.00586659
0.00542265
0.00495012
0.00446866
0.00398734
0.00351309
0.0030508
0.00260273
0.00216944
0.00175139
0.00134606
0.000960301
0.000558087
0.000286485
0.00591388
0.00597937
0.00609245
0.00605072
0.00585763
0.00559475
0.00528439
0.00493019
0.00454606
0.00414497
0.00373431
0.00331946
0.00290502
0.00249438
0.00208957
0.00169268
0.00130211
0.000928233
0.000532643
0.000283022
0.00591993
0.00590908
0.00591789
0.00586399
0.0057169
0.00549884
0.00522342
0.00489829
0.00453657
0.00415127
0.00375135
0.0033434
0.00293276
0.00252352
0.0021183
0.00171973
0.00132636
0.000949374
0.000548904
0.000293708
0.00588417
0.00584347
0.00579824
0.00571255
0.00555835
0.00534242
0.0050769
0.00476966
0.00442938
0.0040652
0.00368463
0.00329362
0.0028971
0.00249909
0.00210243
0.00171009
0.00132093
0.000946669
0.000547613
0.000293657
0.00584763
0.00579551
0.00572531
0.00562268
0.00546735
0.00525908
0.00500513
0.00471163
0.00438515
0.00403326
0.00366303
0.0032804
0.00289038
0.00249714
0.00210376
0.00171347
0.00132531
0.00095125
0.000551507
0.000296136
0.0058263
0.00577
0.00568978
0.00557933
0.0054224
0.00521625
0.0049661
0.00467767
0.00435696
0.0040108
0.00364583
0.00326781
0.00288164
0.00249149
0.00210045
0.00171185
0.00132481
0.00095138
0.000551809
0.000296631
0.0058263
0.00577
0.00568978
0.00557933
0.0054224
0.00521625
0.0049661
0.00467767
0.00435696
0.0040108
0.00364583
0.00326781
0.00288164
0.00249149
0.00210045
0.00171185
0.00132481
0.00095138
0.000551809
0.000296631
0.00584763
0.00579551
0.00572531
0.00562268
0.00546735
0.00525908
0.00500513
0.00471163
0.00438515
0.00403326
0.00366303
0.0032804
0.00289038
0.00249714
0.00210376
0.00171347
0.00132531
0.00095125
0.000551507
0.000296136
0.00588417
0.00584347
0.00579824
0.00571255
0.00555835
0.00534242
0.0050769
0.00476966
0.00442938
0.0040652
0.00368463
0.00329362
0.0028971
0.00249909
0.00210243
0.00171009
0.00132093
0.000946669
0.000547612
0.000293657
0.00591993
0.00590908
0.00591789
0.00586399
0.0057169
0.00549884
0.00522342
0.00489829
0.00453657
0.00415127
0.00375135
0.0033434
0.00293276
0.00252352
0.0021183
0.00171973
0.00132636
0.000949374
0.000548903
0.000293708
0.00591388
0.00597937