/*--------------------------------*- C++ -*----------------------------------*\
  =========                 |
  \\      /  F ield         | OpenFOAM: The Open Source CFD Toolbox
   \\    /   O peration     | Website:  https://openfoam.org
    \\  /    A nd           | Version:  9
     \\/     M anipulation  |
\*---------------------------------------------------------------------------*/
FoamFile
{
    format      ascii;
    class       volScalarField;
    location    "100";
    object      p;
}
// * * * * * * * * * * * * * * * * * * * * * * * * * * * * * * * * * * * * * //

dimensions      [0 2 -2 0 0 0 0];

internalField   nonuniform List<scalar> 
8000
(
0.0642396
0.0446727
0.0299849
0.0229869
0.0185631
0.0146149
0.0114048
0.00908638
0.00739751
0.00608877
0.00503687
0.00416782
0.00341767
0.00273754
0.00209943
0.00148891
0.000920313
0.00038427
9.4834e-05
-0.000488173
-0.00712339
-0.00394349
0.000726358
0.00482553
0.00769631
0.00935428
0.0101052
0.0102356
0.00992285
0.00930557
0.00851046
0.00763033
0.00671928
0.005806
0.00490672
0.00402372
0.00316198
0.00229249
0.00150506
0.000308558
0.00695363
0.0128283
0.0152467
0.0148297
0.0139776
0.0131207
0.0121528
0.011139
0.0101486
0.00919029
0.00826125
0.00736162
0.00648834
0.0056352
0.00479624
0.00396372
0.00313401
0.00228437
0.00145036
0.000387774
0.00867193
0.00943973
0.00979636
0.0097558
0.00978863
0.00979297
0.00960777
0.00925819
0.00879964
0.008254
0.00763728
0.00696856
0.00626269
0.00552854
0.00477122
0.0039921
0.00319062
0.00235757
0.00149179
0.000557605
0.00887042
0.00917932
0.00973786
0.0100257
0.0100372
0.00987384
0.00955964
0.00912752
0.00861572
0.00804511
0.0074279
0.00677463
0.00609281
0.00538645
0.00465726
0.00390519
0.00312816
0.00232483
0.00147845
0.000689278
0.00885466
0.00897516
0.00924858
0.00936866
0.00931098
0.00915159
0.00889916
0.00855227
0.00812626
0.00763592
0.00709138
0.00650136
0.00587316
0.0052119
0.00452081
0.00380194
0.00305495
0.00228518
0.00146987
0.00078696
0.00874862
0.00878506
0.00893358
0.00901111
0.00896479
0.00882101
0.00858689
0.00826464
0.00786626
0.0074044
0.00688836
0.00632583
0.00572334
0.00508591
0.0044171
0.00371986
0.00299485
0.00225112
0.0014628
0.000848509
0.0086291
0.00862944
0.00871504
0.00875257
0.00869194
0.00854486
0.00831856
0.00801527
0.00764175
0.00720648
0.00671678
0.00617918
0.00559951
0.00498276
0.00433291
0.00365376
0.00294688
0.00222349
0.00145623
0.000883252
0.00853697
0.00852192
0.0085766
0.00859039
0.00852118
0.00837455
0.00815466
0.00786282
0.00750361
0.00708357
0.00660911
0.00608615
0.00552019
0.00491614
0.00427823
0.00361073
0.00291571
0.00220543
0.00145169
0.00090104
0.00848799
0.00846684
0.00850859
0.00851141
0.00843756
0.00829049
0.00807292
0.00778593
0.00743334
0.00702073
0.0065539
0.0060384
0.00547948
0.00488201
0.00425029
0.00358882
0.00289989
0.00219617
0.00144912
0.000908253
0.00848799
0.00846684
0.00850859
0.00851142
0.00843756
0.0082905
0.00807292
0.00778593
0.00743334
0.00702073
0.0065539
0.0060384
0.00547948
0.00488201
0.00425029
0.00358882
0.00289989
0.00219617
0.00144912
0.000908253
0.00853697
0.00852192
0.0085766
0.00859039
0.00852119
0.00837455
0.00815466
0.00786282
0.00750361
0.00708357
0.00660911
0.00608615
0.00552019
0.00491613
0.00427822
0.00361073
0.00291571
0.00220543
0.00145169
0.00090104
0.0086291
0.00862945
0.00871505
0.00875257
0.00869194
0.00854487
0.00831857
0.00801527
0.00764175
0.00720648
0.00671678
0.00617917
0.00559951
0.00498275
0.0043329
0.00365375
0.00294687
0.00222349
0.00145623
0.000883252
0.00874863
0.00878506
0.00893359
0.00901112
0.0089648
0.00882101
0.0085869
0.00826465
0.00786626
0.0074044
0.00688836
0.00632583
0.00572334
0.00508591
0.00441709
0.00371986
0.00299485
0.00225111
0.0014628
0.000848509
0.00885467
0.00897517
0.00924859
0.00936867
0.00931099
0.0091516
0.00889916
0.00855227
0.00812626
0.00763592
0.00709137
0.00650135
0.00587316
0.0052119
0.00452081
0.00380193
0.00305494
0.00228517
0.00146986
0.000786959
0.00887043
0.00917933
0.00973787
0.0100258
0.0100372
0.00987385
0.00955965
0.00912752
0.00861572
0.00804511
0.0074279
0.00677462
0.00609281
0.00538645
0.00465726
0.00390519
0.00312816
0.00232482
0.00147845
0.000689277
0.00867194
0.00943974
0.00979637
0.00975581
0.00978864
0.00979298
0.00960777
0.0092582
0.00879965
0.008254
0.00763728
0.00696856
0.00626269
0.00552853
0.00477122
0.00399209
0.00319061
0.00235756
0.00149178
0.000557604
0.00695364
0.0128283
0.0152467
0.0148297
0.0139777
0.0131207
0.0121528
0.011139
0.0101486
0.0091903
0.00826125
0.00736162
0.00648834
0.0056352
0.00479624
0.0039637
0.00313399
0.00228435
0.00145035
0.000387772
-0.00712337
-0.00394348
0.000726369
0.00482554
0.00769632
0.00935429
0.0101052
0.0102357
0.00992286
0.00930558
0.00851046
0.00763033
0.00671928
0.005806
0.00490672
0.00402372
0.00316198
0.00229249
0.00150505
0.000308544
0.0642396
0.0446727
0.0299849
0.0229869
0.0185631
0.0146149
0.0114048
0.00908639
0.00739751
0.00608877
0.00503687
0.00416781
0.00341767
0.00273754
0.00209943
0.00148891
0.000920321
0.000384283
9.48468e-05
-0.000488159
0.063207
0.0444189
0.0297913
0.0228196
0.0187208
0.0151192
0.0121331
0.0099177
0.00824483
0.0068944
0.00576833
0.00481339
0.00397957
0.00322538
0.00252555
0.00186507
0.00125843
0.000681084
0.000355855
-0.000374878
-0.00901691
-0.00526115
-0.00057423
0.00294089
0.00514716
0.00650915
0.00735099
0.00782311
0.00796973
0.00783169
0.00747461
0.00696195
0.00634039
0.00564374
0.00489773
0.00411995
0.00333175
0.00250038
0.00172441
0.000440347
0.00614954
0.0122097
0.0146452
0.0140852
0.0130089
0.0120037
0.0109898
0.0100065
0.00910455
0.00827338
0.00748861
0.00673401
0.00599679
0.00526592
0.00453367
0.00379303
0.00304201
0.00225323
0.00146091
0.000422904
0.00774766
0.00857012
0.00883034
0.00864912
0.00855568
0.0084925
0.00830721
0.00801357
0.00765368
0.00723389
0.00675492
0.00622469
0.00565132
0.00504004
0.00439431
0.0037152
0.00300219
0.0022449
0.00143473
0.000561111
0.00809279
0.00858031
0.00914507
0.00937953
0.00932533
0.00910017
0.0087464
0.00830402
0.00781072
0.007283
0.00672663
0.00614588
0.0055432
0.00491877
0.00427148
0.00359932
0.00289807
0.00216541
0.00137097
0.000655567
0.00817994
0.0084759
0.00873063
0.00877151
0.00864606
0.00843757
0.00815791
0.0078063
0.00739607
0.00693904
0.0064415
0.00590836
0.00534373
0.00475022
0.004129
0.00348048
0.00280207
0.00209873
0.00133052
0.00072498
0.00813921
0.008356
0.00849705
0.0085108
0.00841556
0.00823659
0.0079787
0.00764603
0.00725133
0.00680657
0.00631938
0.00579544
0.00523932
0.00465425
0.00404207
0.00340422
0.00273889
0.00205491
0.00130718
0.00076836
0.00806331
0.00824748
0.00833072
0.00830747
0.00820035
0.00802026
0.00777073
0.00745552
0.00708212
0.00665842
0.00619063
0.0056839
0.00514268
0.00457059
0.00397019
0.00334397
0.00269113
0.00202281
0.00129158
0.00079206
0.00799799
0.00816824
0.00822361
0.00817937
0.00806666
0.00789005
0.00764867
0.00734474
0.00698363
0.00657166
0.00611455
0.00561735
0.00508454
0.00451996
0.00392662
0.00330758
0.00266262
0.00200399
0.00128309
0.000804176
0.00796176
0.00812643
0.00817034
0.00811648
0.00800028
0.00782422
0.00758559
0.00728622
0.00693081
0.00652482
0.00607347
0.00558161
0.00505362
0.00449338
0.00390407
0.00328904
0.00264832
0.00199463
0.00127892
0.000808989
0.00796176
0.00812644
0.00817034
0.00811648
0.00800028
0.00782422
0.00758559
0.00728622
0.00693081
0.00652482
0.00607347
0.00558161
0.00505362
0.00449338
0.00390407
0.00328904
0.00264832
0.00199463
0.00127892
0.000808989
0.00799799
0.00816824
0.00822361
0.00817937
0.00806667
0.00789005
0.00764868
0.00734474
0.00698364
0.00657166
0.00611455
0.00561734
0.00508454
0.00451995
0.00392661
0.00330758
0.00266261
0.00200399
0.00128309
0.000804176
0.00806331
0.00824749
0.00833073
0.00830747
0.00820035
0.00802026
0.00777073
0.00745552
0.00708212
0.00665842
0.00619063
0.0056839
0.00514268
0.00457058
0.00397019
0.00334397
0.00269113
0.00202281
0.00129157
0.000792061
0.00813922
0.00835601
0.00849706
0.00851081
0.00841557
0.0082366
0.0079787
0.00764603
0.00725133
0.00680657
0.00631938
0.00579544
0.00523932
0.00465425
0.00404207
0.00340421
0.00273889
0.00205491
0.00130718
0.00076836
0.00817995
0.00847591
0.00873064
0.00877152
0.00864607
0.00843758
0.00815791
0.0078063
0.00739607
0.00693904
0.0064415
0.00590835
0.00534372
0.00475021
0.00412899
0.00348048
0.00280206
0.00209872
0.00133052
0.00072498
0.0080928
0.00858032
0.00914508
0.00937954
0.00932534
0.00910018
0.00874641
0.00830402
0.00781072
0.00728301
0.00672663
0.00614588
0.0055432
0.00491877
0.00427148
0.00359931
0.00289806
0.00216541
0.00137096
0.000655566
0.00774767
0.00857014
0.00883035
0.00864913
0.00855569
0.00849251
0.00830722
0.00801358
0.00765368
0.00723389
0.00675492
0.00622469
0.00565132
0.00504004
0.00439431
0.0037152
0.00300218
0.00224489
0.00143471
0.000561108
0.00614956
0.0122097
0.0146452
0.0140853
0.0130089
0.0120037
0.0109899
0.0100065
0.00910455
0.00827338
0.00748862
0.00673401
0.00599678
0.00526592
0.00453367
0.00379302
0.003042
0.00225322
0.0014609
0.000422904
-0.0090169
-0.00526113
-0.000574219
0.0029409
0.00514718
0.00650916
0.007351
0.00782312
0.00796973
0.00783169
0.00747461
0.00696195
0.00634039
0.00564374
0.00489773
0.00411994
0.00333173
0.00250036
0.00172439
0.000440328
0.063207
0.0444189
0.0297913
0.0228196
0.0187209
0.0151192
0.0121331
0.00991771
0.00824484
0.0068944
0.00576833
0.00481339
0.00397957
0.00322537
0.00252555
0.00186507
0.00125843
0.00068109
0.000355863
-0.000374867
0.062944
0.0436834
0.0288921
0.0219359
0.0179758
0.014568
0.0117673
0.00970695
0.0081542
0.00688739
0.00581257
0.00488588
0.00406754
0.00332424
0.00263666
0.00199198
0.00140466
0.000839676
0.000512235
-0.000277551
-0.00978862
-0.00608776
-0.0015012
0.00182205
0.00374977
0.0048136
0.00540287
0.00571238
0.00580707
0.00572488
0.00551256
0.0052083
0.00483333
0.00439926
0.00391566
0.00338685
0.00282559
0.00219274
0.00158186
0.000446926
0.00574664
0.0117749
0.0141231
0.0134708
0.0122998
0.0112073
0.0101181
0.00906738
0.00811336
0.0072566
0.0064789
0.00576499
0.00509925
0.00446495
0.00384743
0.0032325
0.00261188
0.00195431
0.00128473
0.000397694
0.00722888
0.00790127
0.00805658
0.00778458
0.00759007
0.00743036
0.0071693
0.00682506
0.00644389
0.006035
0.00559765
0.00513605
0.00465387
0.00415139
0.00362712
0.00307787
0.00249944
0.0018811
0.0012068
0.00049676
0.00759811
0.00796197
0.00845157
0.00863149
0.00852906
0.00826002
0.00786877
0.00739649
0.00688369
0.00635125
0.00580815
0.00526006
0.00470925
0.00415438
0.00359191
0.00301736
0.00242372
0.00180902
0.00113495
0.000556251
0.00771098
0.00787825
0.00805429
0.00803882
0.00786103
0.00760395
0.00728577
0.00690928
0.00648877
0.00603689
0.00556031
0.00506361
0.00455016
0.00402154
0.00347754
0.00291731
0.0023365
0.00174125
0.00108465
0.000593777
0.00769683
0.00778957
0.0078596
0.0078276
0.00769223
0.00747716
0.00719041
0.00683846
0.00643512
0.00599352
0.00552221
0.00502718
0.00451289
0.00398212
0.0034359
0.00287489
0.00229591
0.00170898
0.00106264
0.000618
0.00764258
0.00770733
0.00772397
0.00765919
0.00751535
0.00730134
0.00702385
0.00668951
0.00630738
0.00588635
0.00543323
0.00495332
0.00445085
0.00392897
0.00338961
0.00283461
0.00226197
0.00168409
0.00104775
0.000629901
0.00759213
0.00764651
0.00763842
0.00755579
0.00740948
0.00720191
0.00693489
0.00661315
0.0062436
0.00583357
0.00538948
0.0049167
0.00441963
0.0039018
0.00336563
0.00281366
0.00224452
0.00167172
0.00104118
0.000636355
0.0075634
0.00761406
0.00759611
0.00750535
0.00735694
0.00715104
0.00688745
0.00657047
0.0062064
0.00580182
0.0053627
0.0048942
0.00440068
0.00388572
0.00335193
0.00280216
0.0022353
0.00166533
0.00103789
0.000638809
0.0075634
0.00761406
0.00759611
0.00750535
0.00735694
0.00715104
0.00688745
0.00657047
0.0062064
0.00580182
0.0053627
0.0048942
0.00440068
0.00388571
0.00335193
0.00280215
0.0022353
0.00166533
0.00103789
0.000638808
0.00759214
0.00764651
0.00763842
0.00755579
0.00740949
0.00720191
0.00693489
0.00661315
0.0062436
0.00583357
0.00538948
0.0049167
0.00441963
0.00390179
0.00336562
0.00281366
0.00224452
0.00167172
0.00104118
0.000636355
0.00764259
0.00770734
0.00772398
0.0076592
0.00751535
0.00730135
0.00702385
0.00668951
0.00630738
0.00588635
0.00543323
0.00495332
0.00445084
0.00392897
0.0033896
0.0028346
0.00226196
0.00168409
0.00104775
0.000629902
0.00769684
0.00778957
0.00785961
0.0078276
0.00769224
0.00747716
0.00719042
0.00683846
0.00643513
0.00599353
0.00552221
0.00502718
0.00451289
0.00398211
0.0034359
0.00287489
0.0022959
0.00170898
0.00106264
0.000618
0.00771099
0.00787826
0.0080543
0.00803883
0.00786103
0.00760396
0.00728577
0.00690928
0.00648877
0.00603689
0.00556031
0.0050636
0.00455016
0.00402153
0.00347753
0.0029173
0.00233649
0.00174125
0.00108465
0.000593777
0.00759812
0.00796198
0.00845157
0.0086315
0.00852907
0.00826003
0.00786877
0.0073965
0.00688369
0.00635125
0.00580816
0.00526006
0.00470925
0.00415437
0.00359191
0.00301735
0.00242372
0.00180901
0.00113494
0.000556249
0.00722889
0.00790128
0.00805659
0.00778459
0.00759008
0.00743037
0.00716931
0.00682506
0.0064439
0.006035
0.00559765
0.00513605
0.00465387
0.00415138
0.00362711
0.00307786
0.00249943
0.00188109
0.00120679
0.000496756
0.00574666
0.0117749
0.0141231
0.0134708
0.0122998
0.0112073
0.0101181
0.00906739
0.00811337
0.0072566
0.0064789
0.00576499
0.00509925
0.00446495
0.00384743
0.00323249
0.00261187
0.0019543
0.00128471
0.000397694
-0.00978861
-0.00608775
-0.00150119
0.00182206
0.00374978
0.00481361
0.00540288
0.00571239
0.00580707
0.00572488
0.00551256
0.0052083
0.00483333
0.00439925
0.00391565
0.00338683
0.00282557
0.00219271
0.00158184
0.000446907
0.062944
0.0436835
0.0288921
0.0219359
0.0179758
0.014568
0.0117673
0.00970696
0.0081542
0.00688739
0.00581258
0.00488588
0.00406754
0.00332424
0.00263666
0.00199198
0.00140466
0.000839676
0.000512236
-0.000277546
0.0624093
0.0429969
0.0281461
0.0212115
0.0173083
0.013963
0.0112195
0.00921347
0.00771579
0.00650479
0.00548582
0.00461518
0.00385357
0.00316788
0.00253881
0.00195307
0.00142233
0.000908522
0.000595191
-0.000157283
-0.0104217
-0.00679448
-0.00228747
0.00096824
0.00283094
0.00382895
0.00435026
0.00459224
0.00462551
0.00449408
0.00425032
0.00393736
0.00357985
0.00319091
0.00278021
0.00235089
0.00191413
0.00143567
0.00100725
0.000204459
0.00521756
0.0112158
0.0135295
0.0128545
0.0116681
0.0105607
0.00945491
0.00838494
0.00740981
0.00653267
0.00573825
0.00501489
0.00435123
0.00373453
0.00315329
0.0025957
0.00205489
0.00150564
0.000967324
0.000297619
0.00668203
0.00728498
0.00738553
0.00707387
0.00684365
0.00665196
0.0063645
0.00599841
0.00559961
0.00517888
0.0047375
0.00428196
0.00381847
0.00334968
0.00287602
0.00239614
0.00190727
0.0014042
0.000869481
0.000366044
0.00706193
0.00736614
0.00781274
0.00796202
0.00783277
0.00754299
0.0071386
0.00665944
0.00614419
0.00561311
0.00507556
0.00453851
0.00400646
0.00348067
0.00296024
0.0024433
0.00192488
0.00140759
0.000852674
0.000424707
0.00718348
0.00728657
0.00741795
0.0073751
0.00717357
0.00689522
0.00656038
0.00617302
0.00574783
0.00529801
0.00483087
0.00435159
0.00386438
0.00337194
0.00287539
0.00237555
0.00186941
0.00136637
0.00082056
0.000447639
0.00718087
0.00720928
0.00723676
0.0071813
0.00702581
0.00679263
0.00649256
0.00613325
0.0057287
0.00529231
0.0048331
0.00435761
0.00387097
0.00337687
0.00287738
0.00237445
0.00186587
0.00136386
0.000818748
0.000465795
0.00713743
0.0071378
0.00711241
0.00702564
0.00686345
0.00663279
0.00634274
0.00600117
0.00561767
0.00520181
0.00476114
0.00430156
0.00382784
0.00334373
0.00285175
0.00235457
0.00185071
0.001354
0.000813519
0.000473148
0.0070951
0.00708536
0.00703577
0.00693224
0.00676899
0.00654607
0.0062676
0.00593953
0.00556934
0.00516503
0.00473375
0.00428152
0.00381328
0.00333306
0.0028438
0.00234867
0.0018466
0.00135209
0.000813597
0.0004781
0.00707068
0.00705743
0.00699826
0.00688707
0.0067223
0.0065016
0.00622698
0.00590391
0.00553931
0.00514045
0.0047141
0.00426611
0.00380135
0.00332392
0.00283685
0.00234351
0.00184298
0.00135006
0.000812972
0.000479922
0.00707068
0.00705744
0.00699826
0.00688707
0.0067223
0.0065016
0.00622698
0.00590391
0.00553931
0.00514045
0.0047141
0.00426611
0.00380135
0.00332392
0.00283685
0.0023435
0.00184298
0.00135006
0.000812972
0.000479921
0.00709511
0.00708536
0.00703577
0.00693224
0.00676899
0.00654607
0.00626761
0.00593954
0.00556934
0.00516503
0.00473375
0.00428152
0.00381327
0.00333306
0.0028438
0.00234867
0.00184659
0.00135209
0.000813596
0.0004781
0.00713743
0.00713781
0.00711241
0.00702564
0.00686345
0.00663279
0.00634275
0.00600117
0.00561767
0.00520181
0.00476114
0.00430156
0.00382784
0.00334373
0.00285174
0.00235457
0.00185071
0.001354
0.000813517
0.000473148
0.00718088
0.00720928
0.00723677
0.00718131
0.00702581
0.00679263
0.00649257
0.00613325
0.0057287
0.00529231
0.0048331
0.00435761
0.00387097
0.00337686
0.00287738
0.00237445
0.00186587
0.00136385
0.000818745
0.000465794
0.00718349
0.00728658
0.00741796
0.00737511
0.00717358
0.00689523
0.00656039
0.00617302
0.00574783
0.00529801
0.00483087
0.00435159
0.00386437
0.00337194
0.00287539
0.00237554
0.0018694
0.00136637
0.000820556
0.000447639
0.00706194
0.00736615
0.00781275
0.00796203
0.00783278
0.00754299
0.00713861
0.00665945
0.0061442
0.00561311
0.00507556
0.00453851
0.00400645
0.00348067
0.00296024
0.00244329
0.00192487
0.00140758
0.000852665
0.000424706
0.00668204
0.00728499
0.00738554
0.00707388
0.00684366
0.00665197
0.0063645
0.00599842
0.00559962
0.00517888
0.0047375
0.00428196
0.00381847
0.00334967
0.00287601
0.00239613
0.00190726
0.00140419
0.000869468
0.000366041
0.00521758
0.0112158
0.0135295
0.0128545
0.0116681
0.0105607
0.00945492
0.00838495
0.00740981
0.00653267
0.00573825
0.00501489
0.00435123
0.00373453
0.00315329
0.00259569
0.00205488
0.00150563
0.000967313
0.00029762
-0.0104217
-0.00679447
-0.00228746
0.000968251
0.00283095
0.00382896
0.00435027
0.00459225
0.00462551
0.00449409
0.00425033
0.00393736
0.00357984
0.0031909
0.00278021
0.00235088
0.00191411
0.00143564
0.00100724
0.000204447
0.0624093
0.0429969
0.0281461
0.0212116
0.0173083
0.013963
0.0112195
0.00921348
0.00771579
0.0065048
0.00548583
0.00461518
0.00385357
0.00316788
0.00253881
0.00195307
0.00142233
0.000908522
0.000595192
-0.000157281
0.0618759
0.0424143
0.0275478
0.0206318
0.0167584
0.0134425
0.0107268
0.00875004
0.00728433
0.00610803
0.00512654
0.00429684
0.00358039
0.00294447
0.00236967
0.00184221
0.00137029
0.000915126
0.000627535
-6.46534e-05
-0.0109676
-0.0073687
-0.00288718
0.00035264
0.00220154
0.00318621
0.00369539
0.00392685
0.00395108
0.00381194
0.00356231
0.00324671
0.0028917
0.00251243
0.00212068
0.00172232
0.00133153
0.000924521
0.000598228
2.1388e-05
0.00469726
0.0106726
0.012973
0.0122994
0.0111222
0.0100266
0.00893238
0.00787238
0.00690547
0.00603533
0.00524753
0.00453172
0.00387827
0.00327652
0.0027173
0.00219183
0.00169634
0.00121363
0.000759812
0.000240007
0.00616204
0.00673474
0.00681296
0.00648873
0.00624975
0.00605271
0.0057643
0.00540154
0.00500958
0.00459853
0.00416927
0.00372832
0.00328262
0.00283615
0.00239124
0.00194928
0.00151057
0.00107656
0.000631761
0.000268159
0.00654864
0.0068257
0.0072542
0.00739462
0.00725968
0.00696799
0.00656662
0.00609494
0.00559079
0.0050739
0.00455333
0.00403601
0.00352677
0.00302776
0.00253941
0.00206196
0.00159284
0.00113903
0.000664585
0.000332652
0.00667498
0.00674926
0.00686145
0.00680978
0.00660277
0.00632219
0.00598951
0.00560849
0.00519336
0.00475713
0.00430715
0.0038488
0.00338669
0.00292416
0.00246326
0.00200616
0.00155141
0.00111086
0.000642819
0.000344535
0.0066778
0.00667669
0.00668523
0.00662181
0.00646134
0.00622607
0.00592847
0.00557625
0.00518291
0.00476159
0.0043213
0.0038687
0.00340923
0.00294707
0.00248499
0.00202591
0.00156866
0.00112666
0.000655103
0.00036015
0.00663932
0.00660936
0.00656459
0.00646989
0.00630287
0.00607027
0.00578289
0.00544864
0.0050766
0.00467609
0.0042547
0.00381852
0.00337266
0.00292133
0.00246758
0.00201485
0.0015623
0.00112425
0.000654976
0.000364699
0.00660078
0.00656015
0.00649091
0.00637955
0.00621169
0.00598701
0.00571139
0.00539089
0.00503252
0.00464401
0.00423256
0.00380431
0.00336449
0.00291755
0.00246688
0.00201625
0.0015651
0.00112805
0.000658884
0.000369026
0.0065784
0.00653398
0.006455
0.00633599
0.00616668
0.00594427
0.00567256
0.00535717
0.00500452
0.00462162
0.00421526
0.00379143
0.00335528
0.00291128
0.0024629
0.00201403
0.0015642
0.00112819
0.000659573
0.000370493
0.0065784
0.00653398
0.006455
0.00633599
0.00616668
0.00594428
0.00567256
0.00535717
0.00500452
0.00462162
0.00421526
0.00379143
0.00335528
0.00291128
0.0024629
0.00201403
0.0015642
0.00112819
0.000659573
0.000370493
0.00660079
0.00656015
0.00649091
0.00637956
0.0062117
0.00598702
0.00571139
0.0053909
0.00503252
0.00464401
0.00423256
0.00380431
0.00336449
0.00291755
0.00246688
0.00201625
0.0015651
0.00112805
0.000658883
0.000369026
0.00663932
0.00660936
0.00656459
0.0064699
0.00630288
0.00607027
0.00578289
0.00544864
0.0050766
0.00467609
0.0042547
0.00381852
0.00337266
0.00292133
0.00246758
0.00201484
0.0015623
0.00112425
0.000654975
0.000364699
0.0066778
0.0066767
0.00668523
0.00662182
0.00646135
0.00622608
0.00592848
0.00557625
0.00518292
0.00476159
0.0043213
0.0038687
0.00340923
0.00294707
0.00248499
0.00202591
0.00156866
0.00112666
0.000655101
0.00036015
0.00667499
0.00674927
0.00686146
0.00680979
0.00660277
0.0063222
0.00598952
0.0056085
0.00519336
0.00475713
0.00430715
0.0038488
0.00338669
0.00292416
0.00246325
0.00200616
0.00155141
0.00111086
0.000642816
0.000344535
0.00654865
0.00682571
0.00725421
0.00739463
0.00725969
0.006968
0.00656663
0.00609494
0.00559079
0.0050739
0.00455334
0.00403601
0.00352677
0.00302776
0.00253941
0.00206196
0.00159283
0.00113903
0.000664578
0.000332651
0.00616205
0.00673475
0.00681297
0.00648873
0.00624976
0.00605272
0.00576431
0.00540155
0.00500959
0.00459854
0.00416927
0.00372832
0.00328262
0.00283615
0.00239124
0.00194927
0.00151056
0.00107655
0.00063175
0.000268157
0.00469727
0.0106726
0.012973
0.0122994
0.0111222
0.0100267
0.00893239
0.00787239
0.00690548
0.00603534
0.00524754
0.00453172
0.00387827
0.00327652
0.0027173
0.00219182
0.00169633
0.00121362
0.000759804
0.000240008
-0.0109676
-0.00736869
-0.00288717
0.00035265
0.00220155
0.00318622
0.00369539
0.00392686
0.00395109
0.00381195
0.00356231
0.00324671
0.0028917
0.00251243
0.00212067
0.00172231
0.00133152
0.000924507
0.000598222
2.13832e-05
0.0618759
0.0424143
0.0275478
0.0206318
0.0167585
0.0134425
0.0107268
0.00875004
0.00728434
0.00610804
0.00512654
0.00429684
0.00358039
0.00294447
0.00236967
0.00184221
0.00137029
0.000915124
0.000627536
-6.46547e-05
0.0614311
0.0419584
0.0270936
0.0201918
0.0163362
0.0130378
0.0103408
0.00838572
0.00694499
0.00579658
0.00484567
0.00404937
0.00336921
0.00277241
0.00223923
0.00175528
0.00132644
0.000912286
0.000647719
-1.98015e-05
-0.011411
-0.00781759
-0.00333606
-9.10229e-05
0.0017629
0.00275187
0.00326607
0.00350429
0.00353717
0.00340845
0.003171
0.00286956
0.00253105
0.00217105
0.00180193
0.00143064
0.00107257
0.000708768
0.000436744
-3.69142e-05
0.00426007
0.010228
0.012528
0.0118624
0.0106971
0.00961542
0.00853667
0.0074933
0.00654385
0.00569194
0.00492323
0.00422762
0.00359594
0.00301809
0.00248562
0.00199085
0.00153089
0.00109181
0.000683979
0.000234963
0.00572598
0.00628959
0.00636463
0.00604314
0.005809
0.00561835
0.00533846
0.00498667
0.00460824
0.00421327
0.00380255
0.00338257
0.00296029
0.00253991
0.00212411
0.00171504
0.00131377
0.000923979
0.000529401
0.000231107
0.00611579
0.00638406
0.00680977
0.00695343
0.00682421
0.00654042
0.00614963
0.0056911
0.00520251
0.00470356
0.00420333
0.00370876
0.00322479
0.00275372
0.00229627
0.00185312
0.00142214
0.00101102
0.000584339
0.000296098
0.00624455
0.00630925
0.00641785
0.00636859
0.00616633
0.0058927
0.0055698
0.00520139
0.0048015
0.00438312
0.00395365
0.00351851
0.00308235
0.00264865
0.00221958
0.00179757
0.00138138
0.000982588
0.00056193
0.000298332
0.00624974
0.00623849
0.00624313
0.00618196
0.00602596
0.00579732
0.00550941
0.00516997
0.00479232
0.00438949
0.00397051
0.00354199
0.00310936
0.00267685
0.00224726
0.00182359
0.00140475
0.00100333
0.000577859
0.000310875
0.00621328
0.00617256
0.00612346
0.00603072
0.00586784
0.00564157
0.0053637
0.00504223
0.00468601
0.00430426
0.00390452
0.00349282
0.0030742
0.00265284
0.0022318
0.00181445
0.0014
0.00100164
0.000577599
0.000312531
0.00617626
0.00612438
0.00605051
0.00594096
0.0057771
0.00555859
0.00529238
0.00498466
0.00464222
0.00427269
0.0038832
0.00347978
0.00306755
0.00265088
0.0022331
0.00181784
0.00140451
0.00100656
0.000581901
0.00031576
0.00615468
0.00609876
0.00601497
0.00589768
0.00573228
0.00551596
0.0052536
0.00495098
0.0046143
0.00425048
0.0038662
0.00346735
0.00305894
0.00264533
0.00222988
0.00181635
0.00140419
0.00100697
0.000582521
0.000316651
0.00615468
0.00609877
0.00601497
0.00589768
0.00573228
0.00551597
0.0052536
0.00495098
0.0046143
0.00425048
0.00386621
0.00346735
0.00305894
0.00264533
0.00222988
0.00181635
0.00140419
0.00100697
0.000582521
0.000316651
0.00617626
0.00612438
0.00605051
0.00594097
0.0057771
0.00555859
0.00529238
0.00498467
0.00464222
0.00427269
0.0038832
0.00347978
0.00306755
0.00265088
0.0022331
0.00181784
0.00140451
0.00100656
0.0005819
0.00031576
0.00621329
0.00617256
0.00612346
0.00603073
0.00586785
0.00564157
0.0053637
0.00504223
0.00468601
0.00430426
0.00390452
0.00349282
0.0030742
0.00265284
0.0022318
0.00181445
0.00139999
0.00100164
0.000577598
0.000312532
0.00624974
0.00623849
0.00624314
0.00618197
0.00602596
0.00579733
0.00550942
0.00516998
0.00479232
0.0043895
0.00397051
0.00354199
0.00310936
0.00267684
0.00224726
0.00182359
0.00140475
0.00100333
0.000577858
0.000310875
0.00624456
0.00630926
0.00641785
0.0063686
0.00616634
0.0058927
0.00556981
0.0052014
0.0048015
0.00438312
0.00395365
0.00351851
0.00308235
0.00264864
0.00221958
0.00179757
0.00138138
0.000982587
0.000561927
0.000298332
0.0061158
0.00638407
0.00680978
0.00695343
0.00682421
0.00654043
0.00614964
0.0056911
0.00520252
0.00470356
0.00420333
0.00370876
0.00322479
0.00275372
0.00229627
0.00185311
0.00142214
0.00101101
0.000584334
0.000296097
0.00572599
0.0062896
0.00636463
0.00604315
0.00580901
0.00561835
0.00533847
0.00498667
0.00460824
0.00421327
0.00380256
0.00338257
0.00296029
0.00253991
0.00212411
0.00171503
0.00131376
0.000923973
0.000529394
0.000231106
0.00426008
0.010228
0.012528
0.0118624
0.0106971
0.00961543
0.00853668
0.00749331
0.00654385
0.00569194
0.00492324
0.00422762
0.00359594
0.00301809
0.00248562
0.00199084
0.00153088
0.0010918
0.000683972
0.000234963
-0.011411
-0.00781758
-0.00333605
-9.10131e-05
0.00176291
0.00275188
0.00326608
0.00350429
0.00353718
0.00340846
0.003171
0.00286956
0.00253105
0.00217105
0.00180193
0.00143064
0.00107257
0.000708759
0.000436743
-3.6916e-05
0.0614311
0.0419584
0.0270936
0.0201918
0.0163362
0.0130378
0.0103408
0.00838573
0.006945
0.00579658
0.00484568
0.00404937
0.00336921
0.00277242
0.00223924
0.00175528
0.00132644
0.000912284
0.00064772
-1.98031e-05
0.0610924
0.0416225
0.0267658
0.0198759
0.0160335
0.0127487
0.0100669
0.00812924
0.00670834
0.00558191
0.00465499
0.00388461
0.00323219
0.00266461
0.00216159
0.00170786
0.00130758
0.000917981
0.000667799
4.45335e-07
-0.0117467
-0.00814939
-0.00366007
-0.000405077
0.00145861
0.00245742
0.00298238
0.00323271
0.00327914
0.00316537
0.00294427
0.00266063
0.00234132
0.00200182
0.00165436
0.00130582
0.000971392
0.000632999
0.000386021
-4.71947e-05
0.00392621
0.00989642
0.0122028
0.0115469
0.010393
0.00932406
0.00825953
0.00723186
0.00629947
0.00546591
0.00471676
0.00404187
0.00343202
0.00287706
0.00236844
0.0018984
0.00146359
0.00105044
0.000664066
0.000243073
0.00539288
0.0059581
0.00603852
0.00572536
0.00550088
0.00532101
0.00505327
0.00471507
0.00435173
0.00397337
0.00358081
0.00318048
0.00277931
0.00238139
0.00198927
0.00160491
0.00122902
0.000865157
0.000495129
0.000222278
0.00578394
0.00605349
0.00648421
0.00663597
0.00651656
0.00624412
0.00586634
0.00542241
0.00494989
0.00446844
0.00398713
0.0035129
0.00305064
0.00260259
0.00216932
0.0017513
0.00134599
0.000960252
0.00055806
0.000286474
0.00591365
0.00597913
0.00609221
0.00605047
0.00585738
0.0055945
0.00528414
0.00492995
0.00454583
0.00414475
0.0037341
0.00331927
0.00290486
0.00249424
0.00208945
0.00169258
0.00130204
0.000928184
0.000532615
0.000283015
0.0059197
0.00590884
0.00591765
0.00586374
0.00571665
0.00549859
0.00522318
0.00489805
0.00453634
0.00415105
0.00375115
0.00334322
0.0029326
0.00252338
0.00211818
0.00171964
0.00132629
0.000949325
0.000548875
0.000293702
0.00588394
0.00584323
0.005798
0.0057123
0.00555809
0.00534218
0.00507665
0.00476942
0.00442915
0.00406498
0.00368443
0.00329343
0.00289693
0.00249895
0.00210231
0.00171
0.00132085
0.00094662
0.000547583
0.000293653
0.0058474
0.00579527
0.00572507
0.00562243
0.0054671
0.00525883
0.00500488
0.00471139
0.00438492
0.00403304
0.00366282
0.00328022
0.00289021
0.002497
0.00210364
0.00171337
0.00132524
0.0009512
0.000551477
0.000296134
0.00582608
0.00576976
0.00568953
0.00557908
0.00542215
0.005216
0.00496586
0.00467743
0.00435673
0.00401058
0.00364562
0.00326762
0.00288148
0.00249134
0.00210033
0.00171175
0.00132473
0.000951331
0.000551779
0.000296629
0.00582608
0.00576976
0.00568953
0.00557908
0.00542215
0.005216
0.00496586
0.00467743
0.00435673
0.00401059
0.00364562
0.00326762
0.00288148
0.00249134
0.00210033
0.00171175
0.00132473
0.000951331
0.000551779
0.000296629
0.0058474
0.00579527
0.00572507
0.00562243
0.00546711
0.00525883
0.00500489
0.00471139
0.00438492
0.00403304
0.00366282
0.00328022
0.00289021
0.002497
0.00210364
0.00171337
0.00132524
0.000951201
0.000551477
0.000296134
0.00588394
0.00584323
0.005798
0.0057123
0.0055581
0.00534218
0.00507665
0.00476942
0.00442915
0.00406499
0.00368443
0.00329343
0.00289693
0.00249895
0.00210231
0.00171
0.00132085
0.000946621
0.000547583
0.000293653
0.00591971
0.00590885
0.00591765
0.00586374
0.00571666
0.0054986
0.00522318
0.00489805
0.00453634
0.00415105
0.00375115
0.00334322
0.0029326
0.00252338
0.00211818
0.00171964
0.00132629
0.000949326
0.000548874
0.000293702
0.00591366
0.00597914
0.00609221
0.00605048
0.00585739