/*--------------------------------*- C++ -*----------------------------------*\
  =========                 |
  \\      /  F ield         | OpenFOAM: The Open Source CFD Toolbox
   \\    /   O peration     | Website:  https://openfoam.org
    \\  /    A nd           | Version:  9
     \\/     M anipulation  |
\*---------------------------------------------------------------------------*/
FoamFile
{
    format      ascii;
    class       surfaceScalarField;
    location    "100";
    object      phi;
}
// * * * * * * * * * * * * * * * * * * * * * * * * * * * * * * * * * * * * * //

dimensions      [0 3 -1 0 0 0 0];

internalField   nonuniform List<scalar> 
22800
(
0.00251454
-1.57098e-05
1.16533e-06
0.0025236
-9.41785e-06
3.62152e-07
0.00252295
3.76728e-07
2.75648e-07
0.00251313
9.58333e-06
2.37286e-07
0.00249746
1.58908e-05
-2.23006e-07
0.00247949
1.86805e-05
-7.1121e-07
0.00246159
1.89239e-05
-1.02555e-06
0.00244496
1.77976e-05
-1.16892e-06
0.00243011
1.60433e-05
-1.18955e-06
0.00241716
1.40759e-05
-1.129e-06
0.00240604
1.21485e-05
-1.02301e-06
0.00239653
1.04068e-05
-9.00882e-07
0.0023884
8.9134e-06
-7.82241e-07
0.0023814
7.67807e-06
-6.77406e-07
0.0023753
6.68861e-06
-5.90153e-07
0.00236989
5.93096e-06
-5.19572e-07
0.00236493
5.42627e-06
-4.65773e-07
0.00236016
5.1736e-06
-4.07829e-07
0.00235505
5.46901e-06
-3.5783e-07
5.82667e-06
-1.61288e-07
0.00249497
-1.23346e-05
1.65976e-06
0.00248846
-4.20549e-06
1.2907e-06
0.00248625
1.32413e-06
1.2612e-06
0.0024886
5.44664e-06
1.79347e-06
0.00249303
9.0839e-06
2.37289e-06
0.00249721
1.19163e-05
2.58906e-06
0.00249992
1.37627e-05
2.45144e-06
0.00250088
1.47264e-05
2.10257e-06
0.00250027
1.4985e-05
1.66874e-06
0.0024984
1.4717e-05
1.23606e-06
0.0024956
1.4095e-05
8.53673e-07
0.00249219
1.32701e-05
5.41871e-07
0.00248844
1.23577e-05
3.02458e-07
0.00248456
1.14376e-05
1.27641e-07
0.00248067
1.05653e-05
6.96122e-09
0.0024769
9.77666e-06
-7.36974e-08
0.00247334
9.1145e-06
-1.28402e-07
0.00247008
8.58572e-06
-1.55405e-07
0.00246734
8.37313e-06
-1.6227e-07
7.98047e-06
-1.09189e-07
0.00248936
-2.35794e-06
6.6489e-07
0.00248672
-2.12385e-06
5.53352e-07
0.0024874
1.2544e-07
5.24276e-07
0.00248949
2.72153e-06
6.28668e-07
0.00249227
5.51431e-06
7.91287e-07
0.00249522
8.08747e-06
8.83096e-07
0.00249797
1.01175e-05
8.9133e-07
0.0025003
1.15507e-05
8.43045e-07
0.00250208
1.24486e-05
7.56341e-07
0.00250326
1.28945e-05
6.47662e-07
0.00250384
1.29803e-05
5.33009e-07
0.00250389
1.27997e-05
4.23494e-07
0.00250348
1.24367e-05
3.2488e-07
0.00250272
1.19602e-05
2.3934e-07
0.0025017
1.14252e-05
1.67072e-07
0.00250049
1.08735e-05
1.06734e-07
0.00249921
1.03432e-05
5.65931e-08
0.00249793
9.84495e-06
1.88677e-08
0.00249686
9.44657e-06
-6.30517e-09
8.79081e-06
-2.37527e-08
0.00249754
-6.60281e-07
7.58523e-07
0.00249538
-7.25833e-07
7.62977e-07
0.00249394
7.5046e-07
8.1818e-07
0.00249327
2.48757e-06
9.00608e-07
0.00249358
4.24619e-06
9.62978e-07
0.00249474
5.95099e-06
9.76007e-07
0.00249646
7.45486e-06
9.40046e-07
0.00249846
8.68192e-06
8.68685e-07
0.00250051
9.62073e-06
7.74331e-07
0.00250246
1.02816e-05
6.68911e-07
0.00250419
1.06892e-05
5.62688e-07
0.00250564
1.08808e-05
4.62219e-07
0.00250681
1.08978e-05
3.70776e-07
0.0025077
1.07806e-05
2.89586e-07
0.00250834
1.05653e-05
2.18703e-07
0.00250878
1.02817e-05
1.57461e-07
0.00250906
9.95553e-06
1.05146e-07
0.00250925
9.59207e-06
6.17826e-08
0.00250946
9.21018e-06
3.08125e-08
8.58615e-06
-2.1541e-09
0.0024988
-9.41643e-08
6.37578e-07
0.00249738
1.65212e-07
5.23461e-07
0.00249651
1.12609e-06
4.97983e-07
0.00249618
2.30027e-06
5.19207e-07
0.00249637
3.5031e-06
5.46405e-07
0.00249706
4.69551e-06
5.67997e-07
0.00249815
5.79594e-06
5.72529e-07
0.00249953
6.74293e-06
5.5757e-07
0.00250111
7.5173e-06
5.25718e-07
0.00250279
8.11864e-06
4.81353e-07
0.00250449
8.55526e-06
4.29403e-07
0.00250616
8.84284e-06
3.74047e-07
0.00250773
9.00118e-06
3.1827e-07
0.0025092
9.05072e-06
2.64066e-07
0.00251054
9.01067e-06
2.12713e-07
0.00251176
8.89709e-06
1.64935e-07
0.00251287
8.72251e-06
1.21508e-07
0.0025139
8.48642e-06
8.25814e-08
0.00251486
8.18979e-06
5.47614e-08
7.70732e-06
1.95682e-08
0.00249926
9.76017e-08
5.53135e-07
0.00249854
4.412e-07
4.35823e-07
0.00249813
1.1068e-06
4.33943e-07
0.00249801
1.94188e-06
4.77577e-07
0.00249819
2.81198e-06
5.06855e-07
0.0024987
3.66894e-06
5.19354e-07
0.00249951
4.46762e-06
5.15712e-07
0.00250059
5.17082e-06
4.97888e-07
0.00250187
5.7639e-06
4.68917e-07
0.00250331
6.24521e-06
4.31798e-07
0.00250486
6.61861e-06
3.89497e-07
0.00250647
6.89197e-06
3.44554e-07
0.00250809
7.07558e-06
2.98823e-07
0.00250971
7.18015e-06
2.53591e-07
0.0025113
7.21551e-06
2.09784e-07
0.00251284
7.18926e-06
1.6803e-07
0.00251432
7.10628e-06
1.29246e-07
0.00251575
6.96355e-06
9.33518e-08
0.00251712
6.75757e-06
6.85411e-08
6.42567e-06
3.47794e-08
0.00249946
1.34693e-07
4.99576e-07
0.00249907
4.55701e-07
3.74417e-07
0.00249889
9.28933e-07
3.65412e-07
0.00249892
1.51043e-06
3.99482e-07
0.00249919
2.12171e-06
4.17577e-07
0.00249971
2.72343e-06
4.23461e-07
0.00250047
3.28809e-06
4.20959e-07
0.00250144
3.79197e-06
4.10161e-07
0.00250259
4.22312e-06
3.91705e-07
0.00250389
4.57924e-06
3.66871e-07
0.00250531
4.8627e-06
3.37225e-07
0.00250682
5.07864e-06
3.04292e-07
0.00250839
5.23361e-06
2.69351e-07
0.00251
5.33417e-06
2.33433e-07
0.00251163
5.38589e-06
1.97417e-07
0.00251327
5.39249e-06
1.62005e-07
0.00251489
5.35553e-06
1.28295e-07
0.00251649
5.27205e-06
9.62342e-08
0.00251803
5.13882e-06
7.49146e-08
4.9282e-06
4.40472e-08
0.00249956
1.09154e-07
4.63819e-07
0.00249934
3.48413e-07
3.33287e-07
0.00249929
6.57548e-07
3.21621e-07
0.00249941
1.02661e-06
3.55205e-07
0.00249975
1.41675e-06
3.73394e-07
0.00250029
1.80232e-06
3.79553e-07
0.00250103
2.16614e-06
3.78362e-07
0.00250196
2.49362e-06
3.70046e-07
0.00250305
2.77628e-06
3.55138e-07
0.00250428
3.0118e-06
3.34753e-07
0.00250563
3.20141e-06
3.10091e-07
0.00250708
3.34824e-06
2.82277e-07
0.00250861
3.45642e-06
2.52298e-07
0.00251019
3.53003e-06
2.20992e-07
0.00251182
3.5724e-06
1.89124e-07
0.00251346
3.58553e-06
1.57341e-07
0.00251512
3.56997e-06
1.26742e-07
0.00251677
3.52383e-06
9.72369e-08
0.00251839
3.44524e-06
7.82536e-08
3.32384e-06
4.94909e-08
0.00249961
5.90571e-08
4.41842e-07
0.00249946
1.85178e-07
3.08604e-07
0.00249949
3.38637e-07
2.95385e-07
0.00249967
5.18307e-07
3.27953e-07
0.00250003
7.08665e-07
3.45135e-07
0.00250058
8.97357e-07
3.50356e-07
0.00250133
1.07601e-06
3.49173e-07
0.00250224
1.23768e-06
3.42095e-07
0.00250331
1.37797e-06
3.29441e-07
0.00250451
1.49542e-06
3.12021e-07
0.00250583
1.59044e-06
2.90707e-07
0.00250725
1.66449e-06
2.66337e-07
0.00250875
1.71957e-06
2.39693e-07
0.00251031
1.7577e-06
2.11489e-07
0.00251192
1.78049e-06
1.82423e-07
0.00251356
1.78893e-06
1.53111e-07
0.00251522
1.78323e-06
1.24654e-07
0.00251689
1.76257e-06
9.69504e-08
0.00251853
1.72619e-06
7.95587e-08
1.67109e-06
5.22021e-08
0.00249963
-9.60591e-13
4.31401e-07
0.00249952
-5.03023e-12
2.97028e-07
0.00249957
-8.54201e-12
2.83057e-07
0.00249977
-9.66792e-12
3.15125e-07
0.00250015
-8.15035e-12
3.32032e-07
0.00250071
-5.6954e-12
3.37143e-07
0.00250145
-3.98296e-12
3.36234e-07
0.00250236
-3.34013e-12
3.29856e-07
0.00250342
-2.84708e-12
3.18226e-07
0.00250461
-1.17302e-12
3.02058e-07
0.00250592
2.40351e-12
2.82135e-07
0.00250733
7.70442e-12
2.59201e-07
0.00250881
1.42303e-11
2.33966e-07
0.00251036
2.16739e-11
2.07096e-07
0.00251196
2.99356e-11
1.7926e-07
0.0025136
3.91117e-11
1.51057e-07
0.00251526
4.96125e-11
1.23581e-07
0.00251693
6.1873e-11
9.67198e-08
0.00251857
7.59672e-11
8.00641e-08
8.8588e-11
5.33332e-08
0.00249963
-5.90589e-08
4.31401e-07
0.00249952
-1.85188e-07
2.97028e-07
0.00249957
-3.38654e-07
2.83057e-07
0.00249977
-5.18326e-07
3.15125e-07
0.00250015
-7.08682e-07
3.32032e-07
0.00250071
-8.97368e-07
3.37143e-07
0.00250145
-1.07602e-06
3.36234e-07
0.00250236
-1.23768e-06
3.29856e-07
0.00250342
-1.37797e-06
3.18226e-07
0.00250461
-1.49542e-06
3.02058e-07
0.00250592
-1.59043e-06
2.82135e-07
0.00250733
-1.66448e-06
2.592e-07
0.00250881
-1.71955e-06
2.33966e-07
0.00251036
-1.75765e-06
2.07096e-07
0.00251196
-1.78043e-06
1.79259e-07
0.0025136
-1.78885e-06
1.51057e-07
0.00251526
-1.78313e-06
1.2358e-07
0.00251693
-1.76244e-06
9.67194e-08
0.00251857
-1.72604e-06
8.00637e-08
-1.67091e-06
5.33329e-08
0.00249961
-1.09156e-07
4.41842e-07
0.00249946
-3.48423e-07
3.08604e-07
0.00249949
-6.57564e-07
2.95385e-07
0.00249967
-1.02663e-06
3.27953e-07
0.00250003
-1.41676e-06
3.45135e-07
0.00250058
-1.80233e-06
3.50356e-07
0.00250133
-2.16615e-06
3.49173e-07
0.00250224
-2.49363e-06
3.42095e-07
0.00250331
-2.77629e-06
3.29441e-07
0.00250451
-3.01181e-06
3.1202e-07
0.00250583
-3.2014e-06
2.90706e-07
0.00250725
-3.34823e-06
2.66336e-07
0.00250875
-3.4564e-06
2.39692e-07
0.00251031
-3.52999e-06
2.11488e-07
0.00251192
-3.57234e-06
1.82422e-07
0.00251356
-3.58546e-06
1.5311e-07
0.00251522
-3.56988e-06
1.24653e-07
0.00251689
-3.52371e-06
9.69492e-08
0.00251853
-3.44509e-06
7.95574e-08
-3.32367e-06
5.22012e-08
0.00249956
-1.34694e-07
4.63819e-07
0.00249934
-4.55709e-07
3.33286e-07
0.00249929
-9.28948e-07
3.2162e-07
0.00249941
-1.51045e-06
3.55205e-07
0.00249975
-2.12172e-06
3.73394e-07
0.00250029
-2.72344e-06
3.79553e-07
0.00250103
-3.2881e-06
3.78362e-07
0.00250196
-3.79197e-06
3.70045e-07
0.00250305
-4.22313e-06
3.55138e-07
0.00250428
-4.57924e-06
3.34753e-07
0.00250563
-4.86269e-06
3.1009e-07
0.00250708
-5.07862e-06
2.82276e-07
0.00250861
-5.23359e-06
2.52297e-07
0.00251019
-5.33414e-06
2.20991e-07
0.00251182
-5.38584e-06
1.89123e-07
0.00251346
-5.39242e-06
1.57339e-07
0.00251512
-5.35544e-06
1.2674e-07
0.00251677
-5.27194e-06
9.7235e-08
0.00251839
-5.13868e-06
7.82516e-08
-4.92803e-06
4.94893e-08
0.00249946
-9.7603e-08
4.99576e-07
0.00249907
-4.41208e-07
3.74417e-07
0.00249889
-1.10681e-06
3.65412e-07
0.00249892
-1.94189e-06
3.99481e-07
0.00249919
-2.81199e-06
4.17577e-07
0.00249971
-3.66895e-06
4.2346e-07
0.00250047
-4.46763e-06
4.20959e-07
0.00250144
-5.17083e-06
4.10161e-07
0.00250259
-5.7639e-06
3.91704e-07
0.00250389
-6.24521e-06
3.66871e-07
0.00250531
-6.61861e-06
3.37224e-07
0.00250682
-6.89196e-06
3.04291e-07
0.00250839
-7.07556e-06
2.6935e-07
0.00251
-7.18013e-06
2.33432e-07
0.00251163
-7.21547e-06
1.97416e-07
0.00251327
-7.18921e-06
1.62004e-07
0.00251489
-7.1062e-06
1.28294e-07
0.00251649
-6.96345e-06
9.62325e-08
0.00251803
-6.75743e-06
7.49125e-08
-6.42551e-06
4.40451e-08
0.00249926
9.41633e-08
5.53136e-07
0.00249854
-1.65218e-07
4.35823e-07
0.00249813
-1.1261e-06
4.33943e-07
0.00249801
-2.30028e-06
4.77577e-07
0.00249819
-3.50311e-06
5.06855e-07
0.0024987
-4.69552e-06
5.19353e-07
0.00249951
-5.79594e-06
5.15712e-07
0.00250059
-6.74293e-06
4.97888e-07
0.00250187
-7.51731e-06
4.68917e-07
0.00250331
-8.11865e-06
4.31797e-07
0.00250486
-8.55526e-06
3.89496e-07
0.00250647
-8.84283e-06
3.44553e-07
0.00250809
-9.00117e-06
2.98822e-07
0.00250971
-9.0507e-06
2.53591e-07
0.0025113
-9.01064e-06
2.09785e-07
0.00251284
-8.89704e-06
1.68031e-07
0.00251432
-8.72244e-06
1.29248e-07
0.00251575
-8.48633e-06
9.33523e-08
0.00251712
-8.18967e-06
6.85404e-08
-7.70717e-06
3.47774e-08
0.0024988
6.6028e-07
6.37578e-07
0.00249738
7.25828e-07
5.23461e-07
0.00249651
-7.50469e-07
4.97982e-07
0.00249618
-2.48758e-06
5.19207e-07
0.00249637
-4.24619e-06
5.46405e-07
0.00249706
-5.951e-06
5.67997e-07
0.00249815
-7.45487e-06
5.72528e-07
0.00249953
-8.68193e-06
5.5757e-07
0.00250111
-9.62073e-06
5.25718e-07
0.00250279
-1.02816e-05
4.81352e-07
0.00250449
-1.06892e-05
4.29403e-07
0.00250616
-1.08808e-05
3.74047e-07
0.00250773
-1.08978e-05
3.18271e-07
0.0025092
-1.07806e-05
2.64069e-07
0.00251054
-1.05652e-05
2.12717e-07
0.00251176
-1.02817e-05
1.64942e-07
0.00251287
-9.95547e-06
1.21515e-07
0.0025139
-9.59199e-06
8.25877e-08
0.00251486
-9.21008e-06
5.47654e-08
-8.58602e-06
1.95682e-08
0.00249754
2.35794e-06
7.58524e-07
0.00249538
2.12384e-06
7.62977e-07
0.00249394
-1.25447e-07
8.1818e-07
0.00249327
-2.72154e-06
9.00607e-07
0.00249358
-5.51431e-06
9.62977e-07
0.00249474
-8.08747e-06
9.76006e-07
0.00249646
-1.01175e-05
9.40045e-07
0.00249846
-1.15507e-05
8.68685e-07
0.00250051
-1.24486e-05
7.74331e-07
0.00250246
-1.28945e-05
6.6891e-07
0.00250419
-1.29803e-05
5.62688e-07
0.00250564
-1.27997e-05
4.6222e-07
0.00250681
-1.24367e-05
3.70777e-07
0.0025077
-1.19601e-05
2.89588e-07
0.00250834
-1.14251e-05
2.18706e-07
0.00250878
-1.08734e-05
1.57466e-07
0.00250906
-1.03432e-05
1.05153e-07
0.00250925
-9.84487e-06
6.17905e-08
0.00250946
-9.44649e-06
3.08199e-08
-8.7907e-06
-2.15127e-09
0.00248936
1.23346e-05
6.6489e-07
0.00248672
4.20549e-06
5.53352e-07
0.0024874
-1.32414e-06
5.24276e-07
0.00248949
-5.44665e-06
6.28668e-07
0.00249227
-9.08391e-06
7.91287e-07
0.00249522
-1.19163e-05
8.83096e-07
0.00249797
-1.37628e-05
8.9133e-07
0.0025003
-1.47264e-05
8.43045e-07
0.00250208
-1.4985e-05
7.56341e-07
0.00250326
-1.4717e-05
6.47663e-07
0.00250384
-1.4095e-05
5.3301e-07
0.00250389
-1.32701e-05
4.23495e-07
0.00250348
-1.23577e-05
3.2488e-07
0.00250272
-1.14376e-05
2.39337e-07
0.0025017
-1.05653e-05
1.67067e-07
0.00250049
-9.77666e-06
1.06726e-07
0.00249921
-9.11449e-06
5.65841e-08
0.00249793
-8.5857e-06
1.88599e-08
0.00249686
-8.37309e-06
-6.31052e-09
-7.98038e-06
-2.37548e-08
0.00249497
1.57098e-05
1.65976e-06
0.00248846
9.41785e-06
1.2907e-06
0.00248625
-3.76734e-07
1.2612e-06
0.0024886
-9.58334e-06
1.79347e-06
0.00249303
-1.58908e-05
2.37289e-06
0.00249721
-1.86805e-05
2.58906e-06
0.00249992
-1.89239e-05
2.45144e-06
0.00250088
-1.77976e-05
2.10257e-06
0.00250027
-1.60433e-05
1.66874e-06
0.0024984
-1.40759e-05
1.23606e-06
0.0024956
-1.21484e-05
8.53677e-07
0.00249219
-1.04068e-05
5.41876e-07
0.00248844
-8.91339e-06
3.02464e-07
0.00248456
-7.67806e-06
1.27647e-07
0.00248067
-6.68861e-06
6.96821e-09
0.0024769
-5.93096e-06
-7.36878e-08
0.00247334
-5.42628e-06
-1.28388e-07
0.00247008
-5.1736e-06
-1.55389e-07
0.00246734
-5.46894e-06
-1.62262e-07
-5.82654e-06
-1.09182e-07
0.00251454
1.16533e-06
0.0025236
3.62156e-07
0.00252295
2.75649e-07
0.00251313
2.37283e-07
0.00249746
-2.23009e-07
0.00247949
-7.11214e-07
0.00246159
-1.02555e-06
0.00244496
-1.16893e-06
0.00243011
-1.18955e-06
0.00241716
-1.12901e-06
0.00240604
-1.02301e-06
0.00239653
-9.00885e-07
0.0023884
-7.82244e-07
0.0023814
-6.77408e-07
0.0023753
-5.9015e-07
0.00236989
-5.19561e-07
0.00236493
-4.65755e-07
0.00236016
-4.07809e-07
0.00235505
-3.57816e-07
-1.61279e-07
0.00251907
-1.8197e-05
2.9396e-07
0.00253091
-1.25263e-05
1.04822e-06
0.0025338
-3.90478e-06
1.29115e-06
0.00252885
3.91335e-06
1.2752e-06
0.00251787
9.67745e-06
1.07925e-06
0.00250358
1.27784e-05
8.01432e-07
0.00248808
1.39332e-05
5.33699e-07
0.00247257
1.4038e-05
3.08207e-07
0.00245767
1.35726e-05
1.3274e-07
0.00244378
1.27557e-05
1.02402e-08
0.00243109
1.17344e-05
-6.49125e-08
0.00241966
1.06295e-05
-1.06263e-07
0.00240948
9.53087e-06
-1.28775e-07
0.00240044
8.50032e-06
-1.44473e-07
0.00239243
7.58457e-06
-1.62014e-07
0.00238528
6.81644e-06
-1.84607e-07
0.00237877
6.25524e-06
-2.12169e-07
0.00237268
5.91709e-06
-2.29491e-07
0.00236638
6.16303e-06
-2.25722e-07
6.37281e-06
-1.44462e-07
0.00249565
-1.28463e-05
6.54617e-07
0.00248975
-6.14898e-06
8.12987e-07
0.00248706
-8.88052e-07
9.35692e-07
0.00248882
2.80578e-06
1.14013e-06
0.00249371
5.7373e-06
1.42318e-06
0.00249927
8.10028e-06
1.71587e-06
0.00250379
9.91313e-06
1.95151e-06
0.00250661
1.12315e-05
2.08776e-06
0.00250764
1.20948e-05
2.10866e-06
0.00250708
1.25322e-05
2.02282e-06
0.00250522
1.25973e-05
1.85393e-06
0.00250239
1.23683e-05
1.63024e-06
0.00249892
1.19299e-05
1.37832e-06
0.00249506
1.13609e-05
1.11991e-06
0.00249105
1.07309e-05
8.69831e-07
0.00248706
1.0098e-05
6.39307e-07
0.00248322
9.53112e-06
4.3481e-07
0.00247968
9.04111e-06
2.60507e-07
0.00247672
8.84513e-06
1.19133e-07
8.35882e-06
-5.98762e-09
0.00248995
-2.45111e-06
3.19645e-07
0.00248697
-3.00155e-06
3.864e-07
0.00248757
-1.43022e-06
4.70607e-07
0.00248991
5.37077e-07
5.552e-07
0.002493
2.79435e-06
6.37025e-07
0.00249623
5.04945e-06
7.07135e-07
0.00249925
7.02375e-06
7.61893e-07
0.00250189
8.63378e-06
8.05428e-07
0.00250403
9.87793e-06
8.32629e-07
0.00250561
1.07645e-05
8.35571e-07
0.00250661
1.13171e-05
8.11268e-07
0.00250706
1.1579e-05
7.61124e-07
0.00250702
1.16049e-05
6.89317e-07
0.00250657
1.14509e-05
6.01769e-07
0.00250579
1.1171e-05
5.04656e-07
0.00250478
1.08128e-05
4.03768e-07
0.00250364
1.04258e-05
3.03754e-07
0.00250247
1.00228e-05
2.07172e-07
0.00250149
9.69656e-06
1.2006e-07
9.01387e-06
1.88974e-08
0.00249875
-8.53549e-07
4.07956e-07
0.00249721
-1.27893e-06
5.82453e-07
0.00249602
-1.03709e-07
6.78086e-07
0.00249531
1.40204e-06
7.546e-07
0.00249534
2.88617e-06
8.32818e-07
0.00249615
4.3157e-06
8.99961e-07
0.00249754
5.63026e-06
9.43159e-07
0.00249929
6.79559e-06
9.60812e-07
0.00250119
7.79822e-06
9.52176e-07
0.00250309
8.62058e-06
9.17854e-07
0.00250486
9.24996e-06
8.61646e-07
0.00250642
9.6888e-06
7.88512e-07
0.00250774
9.95274e-06
7.03266e-07
0.0025088
1.0065e-05
6.10432e-07
0.00250963
1.00527e-05
5.13934e-07
0.00251024
9.94186e-06
4.168e-07
0.00251069
9.75926e-06
3.21349e-07
0.00251104
9.50949e-06
2.27606e-07
0.0025114
9.22524e-06
1.39909e-07
8.62811e-06
4.36922e-08
0.00249961
-2.11129e-07
3.88676e-07
0.00249851
-1.92651e-07
5.36761e-07
0.00249776
5.36064e-07
6.03927e-07
0.00249752
1.51738e-06
6.46375e-07
0.00249774
2.53854e-06
6.77196e-07
0.00249835
3.57233e-06
6.98927e-07
0.00249928
4.56301e-06
7.10975e-07
0.00250046
5.46081e-06
7.13779e-07
0.00250183
6.24692e-06
7.06665e-07
0.00250333
6.9133e-06
6.87913e-07
0.00250489
7.45493e-06
6.56809e-07
0.00250647
7.87251e-06
6.13922e-07
0.00250801
8.17248e-06
5.60682e-07
0.00250947
8.36488e-06
4.99114e-07
0.00251085
8.46161e-06
4.31482e-07
0.00251212
8.47408e-06
3.59784e-07
0.0025133
8.41294e-06
2.85948e-07
0.00251441
8.27584e-06
2.09856e-07
0.00251548
8.06989e-06
1.36135e-07
7.63446e-06
6.3547e-08
0.00249996
1.66138e-08
3.68433e-07
0.00249949
1.89643e-07
5.18469e-07
0.00249918
6.94859e-07
5.87887e-07
0.00249914
1.40485e-06
6.31024e-07
0.00249935
2.17304e-06
6.64221e-07
0.00249981
2.94218e-06
6.88401e-07
0.00250051
3.67273e-06
6.9954e-07
0.00250144
4.33452e-06
6.96585e-07
0.00250256
4.9165e-06
6.80883e-07
0.00250383
5.41652e-06
6.53795e-07
0.00250523
5.83414e-06
6.16779e-07
0.0025067
6.17085e-06
5.71475e-07
0.00250822
6.43037e-06
5.1944e-07
0.00250976
6.61759e-06
4.62105e-07
0.0025113
6.73765e-06
4.00831e-07
0.00251281
6.79466e-06
3.36693e-07
0.00251429
6.79139e-06
2.70889e-07
0.00251573
6.72314e-06
2.02826e-07
0.00251714
6.58843e-06
1.36463e-07
6.30295e-06
8.09038e-08
0.00250009
7.92478e-08
3.4755e-07
0.00249988
2.87147e-07
4.91289e-07
0.00249973
6.54455e-07
5.53779e-07
0.00249979
1.15018e-06
5.87788e-07
0.00250008
1.6933e-06
6.10884e-07
0.00250058
2.23931e-06
6.25331e-07
0.00250128
2.76197e-06
6.29618e-07
0.00250216
3.23974e-06
6.23517e-07
0.0025032
3.66143e-06
6.07952e-07
0.00250438
4.02418e-06
5.8376e-07
0.00250567
4.32861e-06
5.51777e-07
0.00250705
4.57711e-06
5.13011e-07
0.00250851
4.77324e-06
4.68497e-07
0.00251002
4.92074e-06
4.19235e-07
0.00251157
5.02272e-06
3.66215e-07
0.00251314
5.08093e-06
3.10235e-07
0.00251471
5.09559e-06
2.52312e-07
0.00251627
5.06261e-06
1.9188e-07
0.00251782
4.97903e-06
1.32544e-07
4.80438e-06
9.06099e-08
0.00250014
7.45335e-08
3.30535e-07
0.00250005
2.44162e-07
4.68463e-07
0.00250001
4.88397e-07
5.27028e-07
0.00250015
8.03857e-07
5.57542e-07
0.00250049
1.15223e-06
5.78144e-07
0.00250101
1.50508e-06
5.91317e-07
0.00250171
1.84464e-06
5.95524e-07
0.00250257
2.15668e-06
5.89957e-07
0.00250358
2.43279e-06
5.751e-07
0.00250472
2.67038e-06
5.51881e-07
0.00250597
2.86989e-06
5.21336e-07
0.00250731
3.03324e-06
4.84574e-07
0.00250873
3.1631e-06
4.42667e-07
0.00251021
3.26219e-06
3.96571e-07
0.00251174
3.3326e-06
3.47175e-07
0.00251331
3.37534e-06
2.95155e-07
0.0025149
3.39022e-06
2.4141e-07
0.0025165
3.37471e-06
1.85373e-07
0.0025181
3.32672e-06
1.30283e-07
3.2287e-06
9.63713e-08
0.00250016
4.24036e-08
3.18852e-07
0.00250012
1.3524e-07
4.52494e-07
0.00250014
2.57896e-07
5.0829e-07
0.00250032
4.11889e-07
5.36271e-07
0.00250068
5.82267e-07
5.54566e-07
0.00250122
7.55485e-07
5.65803e-07
0.00250192
9.22695e-07
5.68782e-07
0.00250278
1.07701e-06
5.62893e-07
0.00250378
1.21402e-06
5.48551e-07
0.0025049
1.33209e-06
5.26558e-07
0.00250613
1.43127e-06
4.978e-07
0.00250746
1.51249e-06
4.63222e-07
0.00250886
1.57711e-06
4.23767e-07
0.00251032
1.62657e-06
3.80306e-07
0.00251184
1.662e-06
3.33665e-07
0.0025134
1.68395e-06
2.84473e-07
0.00251499
1.69232e-06
2.33599e-07
0.0025166
1.68602e-06
1.80505e-07
0.00251821
1.66409e-06
1.2824e-07
1.62028e-06
9.89631e-08
0.00250016
-9.18788e-13
3.12963e-07
0.00250015
-4.81696e-12
4.44384e-07
0.00250019
-8.50821e-12
4.98777e-07
0.00250039
-1.00899e-11
5.2557e-07
0.00250076
-8.85415e-12
5.42895e-07
0.0025013
-6.30143e-12
5.53484e-07
0.00250201
-4.3206e-12
5.56248e-07
0.00250286
-3.63557e-12
5.50571e-07
0.00250386
-3.57124e-12
5.36739e-07
0.00250498
-2.62591e-12
5.15452e-07
0.0025062
3.18833e-13
4.87545e-07
0.00250752
5.27989e-12
4.53925e-07
0.00250892
1.16482e-11
4.1551e-07
0.00251038
1.8898e-11
3.73159e-07
0.00251189
2.67545e-11
3.27686e-07
0.00251344
3.53005e-11
2.79715e-07
0.00251503
4.51397e-11
2.30102e-07
0.00251663
5.68234e-11
1.78322e-07
0.00251825
7.07225e-11
1.27333e-07
8.4276e-11
1.00015e-07
0.00250016
-4.24054e-08
3.12963e-07
0.00250015
-1.35249e-07
4.44384e-07
0.00250019
-2.57912e-07
4.98777e-07
0.00250039
-4.11909e-07
5.2557e-07
0.00250076
-5.82284e-07
5.42895e-07
0.0025013
-7.55497e-07
5.53484e-07
0.00250201
-9.22703e-07
5.56248e-07
0.00250286
-1.07701e-06
5.50571e-07
0.00250386
-1.21403e-06
5.36739e-07
0.00250498
-1.3321e-06
5.15452e-07
0.0025062
-1.43127e-06
4.87545e-07
0.00250752
-1.51248e-06
4.53925e-07
0.00250892
-1.57709e-06
4.1551e-07
0.00251038
-1.62654e-06
3.73159e-07
0.00251189
-1.66195e-06
3.27686e-07
0.00251344
-1.68388e-06
2.79714e-07
0.00251503
-1.69223e-06
2.30101e-07
0.00251663
-1.68591e-06
1.78322e-07
0.00251825
-1.66395e-06
1.27333e-07
-1.62012e-06
1.00015e-07
0.00250016
-7.45351e-08
3.18852e-07
0.00250012
-2.44171e-07
4.52494e-07
0.00250014
-4.88413e-07
5.0829e-07
0.00250032
-8.03876e-07
5.36271e-07
0.00250068
-1.15225e-06
5.54566e-07
0.00250122
-1.50509e-06
5.65803e-07
0.00250192
-1.84465e-06
5.68782e-07
0.00250278
-2.15668e-06
5.62893e-07
0.00250378
-2.4328e-06
5.48551e-07
0.0025049
-2.67038e-06
5.26558e-07
0.00250613
-2.86989e-06
4.978e-07
0.00250746
-3.03323e-06
4.63221e-07
0.00250886
-3.16308e-06
4.23766e-07
0.00251032
-3.26215e-06
3.80305e-07
0.00251184
-3.33255e-06
3.33663e-07
0.0025134
-3.37528e-06
2.84472e-07
0.00251499
-3.39013e-06
2.33598e-07
0.0025166
-3.3746e-06
1.80504e-07
0.00251821
-3.32658e-06
1.2824e-07
-3.22853e-06
9.89634e-08
0.00250014
-7.92493e-08
3.30535e-07
0.00250005
-2.87156e-07
4.68463e-07
0.00250001
-6.5447e-07
5.27028e-07
0.00250015
-1.1502e-06
5.57542e-07
0.00250049
-1.69331e-06
5.78144e-07
0.00250101
-2.23932e-06
5.91317e-07
0.00250171
-2.76197e-06
5.95523e-07
0.00250257
-3.23975e-06
5.89956e-07
0.00250358
-3.66144e-06
5.751e-07
0.00250472
-4.02419e-06
5.51881e-07
0.00250597
-4.32861e-06
5.21335e-07
0.00250731
-4.5771e-06
4.84573e-07
0.00250873
-4.77323e-06
4.42665e-07
0.00251021
-4.92071e-06
3.96569e-07
0.00251174
-5.02267e-06
3.47173e-07
0.00251331
-5.08087e-06
2.95152e-07
0.0025149
-5.09551e-06
2.41408e-07
0.0025165
-5.0625e-06
1.85372e-07
0.0025181
-4.9789e-06
1.30282e-07
-4.80422e-06
9.63717e-08
0.00250009
-1.6615e-08
3.4755e-07
0.00249988
-1.8965e-07
4.91289e-07
0.00249973
-6.94872e-07
5.53779e-07
0.00249979
-1.40486e-06
5.87788e-07
0.00250008
-2.17306e-06
6.10884e-07
0.00250058
-2.94219e-06
6.2533e-07
0.00250128
-3.67273e-06
6.29617e-07
0.00250216
-4.33452e-06
6.23516e-07
0.0025032
-4.9165e-06
6.07952e-07
0.00250438
-5.41653e-06
5.83759e-07
0.00250567
-5.83414e-06
5.51776e-07
0.00250705
-6.17085e-06
5.13009e-07
0.00250851
-6.43036e-06
4.68495e-07
0.00251002
-6.61757e-06
4.19232e-07
0.00251157
-6.73761e-06
3.66212e-07
0.00251314
-6.7946e-06
3.10232e-07
0.00251471
-6.79132e-06
2.52309e-07
0.00251627
-6.72305e-06
1.91879e-07
0.00251782
-6.5883e-06
1.32543e-07
-6.30279e-06
9.06104e-08
0.00249996
2.11129e-07
3.68433e-07
0.00249949
1.92645e-07
5.18469e-07
0.00249918
-5.36075e-07
5.87887e-07
0.00249914
-1.51739e-06
6.31024e-07
0.00249935
-2.53855e-06
6.64221e-07
0.00249981
-3.57234e-06
6.884e-07
0.00250051
-4.56302e-06
6.99539e-07
0.00250144
-5.46081e-06
6.96585e-07
0.00250256
-6.24692e-06
6.80882e-07
0.00250383
-6.91331e-06
6.53793e-07
0.00250523
-7.45494e-06
6.16777e-07
0.0025067
-7.87251e-06
5.71473e-07
0.00250822
-8.17247e-06
5.19437e-07
0.00250976
-8.36486e-06
4.62102e-07
0.0025113
-8.46158e-06
4.00827e-07
0.00251281
-8.47404e-06
3.3669e-07
0.00251429
-8.41287e-06
2.70887e-07
0.00251573
-8.27576e-06
2.02825e-07
0.00251714
-8.06977e-06
1.36463e-07
-7.63431e-06
8.09043e-08
0.00249961
8.53549e-07
3.88675e-07
0.00249851
1.27893e-06
5.36761e-07
0.00249776
1.03701e-07
6.03927e-07
0.00249752
-1.40205e-06
6.46375e-07
0.00249774
-2.88618e-06
6.77195e-07
0.00249835
-4.31571e-06
6.98926e-07
0.00249928
-5.63026e-06
7.10974e-07
0.00250046
-6.79559e-06
7.13778e-07
0.00250183
-7.79823e-06
7.06664e-07
0.00250333
-8.62059e-06
6.87912e-07
0.00250489
-9.24997e-06
6.56808e-07
0.00250647
-9.6888e-06
6.1392e-07
0.00250801
-9.95273e-06
5.6068e-07
0.00250947
-1.0065e-05
4.99113e-07
0.00251085
-1.00527e-05
4.31481e-07
0.00251212
-9.94183e-06
3.59785e-07
0.0025133
-9.75921e-06
2.8595e-07
0.00251441
-9.50942e-06
2.09858e-07
0.00251548
-9.22514e-06
1.36136e-07
-8.62798e-06
6.35479e-08
0.00249875
2.45111e-06
4.07956e-07
0.00249721
3.00154e-06
5.82453e-07
0.00249602
1.43022e-06
6.78086e-07
0.00249531
-5.37084e-07
7.546e-07
0.00249534
-2.79436e-06
8.32817e-07
0.00249615
-5.04945e-06
8.9996e-07
0.00249754
-7.02375e-06
9.43158e-07
0.00249929
-8.63379e-06
9.60811e-07
0.00250119
-9.87794e-06
9.52174e-07
0.00250309
-1.07646e-05
9.17852e-07
0.00250486
-1.13171e-05
8.61645e-07
0.00250642
-1.1579e-05
7.88511e-07
0.00250774
-1.16049e-05
7.03266e-07
0.0025088
-1.14509e-05
6.10433e-07
0.00250963
-1.1171e-05
5.13937e-07
0.00251024
-1.08128e-05
4.16805e-07
0.00251069
-1.04258e-05
3.21354e-07
0.00251104
-1.00227e-05
2.27612e-07
0.0025114
-9.69649e-06
1.39914e-07
-9.01378e-06
4.36939e-08
0.00248995
1.28463e-05
3.19645e-07
0.00248697
6.14898e-06
3.86401e-07
0.00248757
8.8805e-07
4.70607e-07
0.00248991
-2.80578e-06
5.55201e-07
0.002493
-5.7373e-06
6.37025e-07
0.00249623
-8.10028e-06
7.07135e-07
0.00249925
-9.91314e-06
7.61892e-07
0.00250189
-1.12315e-05
8.05427e-07
0.00250403
-1.20948e-05
8.32628e-07
0.00250561
-1.25322e-05
8.3557e-07
0.00250661
-1.25973e-05
8.11267e-07
0.00250706
-1.23683e-05
7.61125e-07
0.00250702
-1.19299e-05
6.89319e-07
0.00250657
-1.13609e-05
6.01772e-07
0.00250579
-1.07309e-05
5.0466e-07
0.00250478
-1.00979e-05
4.03771e-07
0.00250364
-9.5311e-06
3.03756e-07
0.00250247
-9.04109e-06
2.07173e-07
0.00250149
-8.84508e-06
1.20062e-07
-8.35873e-06
1.88985e-08
0.00249565
1.8197e-05
6.54618e-07
0.00248975
1.25263e-05
8.12988e-07
0.00248706
3.90478e-06
9.35693e-07
0.00248882
-3.91335e-06
1.14013e-06
0.00249371
-9.67746e-06
1.42318e-06
0.00249927
-1.27784e-05
1.71587e-06
0.00250379
-1.39332e-05
1.95151e-06
0.00250661
-1.40379e-05
2.08776e-06
0.00250764
-1.35726e-05
2.10866e-06
0.00250708
-1.27557e-05
2.02282e-06
0.00250522
-1.17344e-05
1.85393e-06
0.00250239
-1.06295e-05
1.63024e-06
0.00249892
-9.53086e-06
1.37832e-06
0.00249506
-8.50032e-06
1.11991e-06
0.00249105
-7.58457e-06
8.69836e-07
0.00248706
-6.81645e-06
6.39312e-07
0.00248322
-6.25525e-06
4.34816e-07
0.00247968
-5.91709e-06
2.60512e-07
0.00247672
-6.16295e-06
1.19133e-07
-6.37268e-06
-5.9876e-09
0.00251907
2.93964e-07
0.00253091
1.04823e-06
0.0025338
1.29115e-06
0.00252885
1.2752e-06
0.00251787
1.07925e-06
0.00250358
8.01431e-07
0.00248808
5.33696e-07
0.00247257
3.08204e-07
0.00245767
1.32736e-07
0.00244378
1.02354e-08
0.00243109
-6.49171e-08
0.00241966
-1.06267e-07
0.00240948
-1.2878e-07
0.00240044
-1.44479e-07
0.00239243
-1.62021e-07
0.00238528
-1.84615e-07
0.00237877
-2.12175e-07
0.00237268
-2.29492e-07
0.00236638
-2.25718e-07
-1.44454e-07
0.00251728
-1.75816e-05
5.97699e-07
0.00252933
-1.19879e-05
9.79849e-07
0.00253325
-3.69584e-06
1.07546e-06
0.00252971
3.7567e-06
1.05351e-06
0.00252062
9.19254e-06
9.78734e-07
0.00250857
1.19544e-05
8.94549e-07
0.00249553
1.27603e-05
8.16539e-07
0.00248251
1.25875e-05
7.4082e-07
0.00246999
1.19911e-05
6.6216e-07
0.0024582
1.1214e-05
5.80724e-07
0.00244726
1.0383e-05
4.9788e-07
0.00243716
9.57286e-06
4.13634e-07
0.00242789
8.81936e-06
3.27556e-07
0.00241937
8.13469e-06
2.39611e-07
0.00241153
7.52745e-06
1.49973e-07
0.00240428
7.00625e-06
5.95902e-08
0.00239747
6.62402e-06
-2.71116e-08
0.00239097
6.37774e-06
-1.05363e-07
0.0023842
6.67216e-06
-1.26752e-07
6.7579e-06
-1.87743e-07
0.00249524
-1.27008e-05
5.35348e-07
0.00248912
-5.75202e-06
6.96068e-07
0.0024862
-6.43411e-07
8.03892e-07
0.00248749
2.71414e-06
8.94784e-07
0.00249193
5.1953e-06
9.78646e-07
0.00249748
7.05748e-06
1.05961e-06
0.00250266
8.39579e-06
1.13908e-06
0.00250677
9.34895e-06
1.21425e-06
0.00250957
1.00174e-05
1.27902e-06
0.00251104
1.04483e-05
1.32701e-06
0.00251125
1.06745e-05
1.35265e-06
0.00251037
1.07291e-05
1.35139e-06
0.0025086
1.06437e-05
1.3206e-06
0.00250615
1.04467e-05
1.25993e-06
0.00250321
1.01688e-05
1.17064e-06
0.00249996
9.83894e-06
1.05536e-06
0.00249659
9.51251e-06
9.17024e-07
0.0024933
9.17806e-06
7.52085e-07
0.00249044
9.08624e-06
5.63813e-07
8.54844e-06
2.54825e-07
0.00248962
-2.417e-06
4.15637e-07
0.00248664
-2.8731e-06
4.89247e-07
0.00248723
-1.29941e-06
5.3095e-07
0.00248951
4.35651e-07
5.61854e-07
0.00249251
2.24621e-06
5.84486e-07
0.0024957
3.97174e-06
6.04461e-07
0.00249878
5.44552e-06
6.23438e-07
0.00250164
6.6593e-06
6.4237e-07
0.00250417
7.65963e-06
6.60487e-07
0.0025063
8.47116e-06
6.75546e-07
0.002508
9.10396e-06
6.85062e-07
0.00250924
9.56897e-06
6.86069e-07
0.00251001
9.87965e-06
6.75237e-07
0.00251036
1.00511e-05
6.4974e-07
0.00251033
1.01024e-05
6.07746e-07
0.00250997
1.00533e-05
5.48304e-07
0.00250937
9.93694e-06
4.71382e-07
0.00250864
9.74752e-06
3.73189e-07
0.00250799
9.59959e-06
2.5968e-07
8.9915e-06