/*--------------------------------*- C++ -*----------------------------------*\
  =========                 |
  \\      /  F ield         | OpenFOAM: The Open Source CFD Toolbox
   \\    /   O peration     | Website:  https://openfoam.org
    \\  /    A nd           | Version:  9
     \\/     M anipulation  |
\*---------------------------------------------------------------------------*/
FoamFile
{
    format      ascii;
    class       volVectorField;
    location    "100";
    object      U;
}
// * * * * * * * * * * * * * * * * * * * * * * * * * * * * * * * * * * * * * //

dimensions      [0 1 -1 0 0 0 0];

internalField   nonuniform List<vector> 
8000
(
(0.998907 -0.0550128 -0.0290345)
(1.00688 -0.0530299 -0.0254797)
(1.01122 -0.0342657 -0.0169319)
(1.00859 -0.0177035 -0.0128473)
(1.0025 -0.00599617 -0.0103871)
(0.995397 0.00124796 -0.0082477)
(0.988153 0.00511518 -0.00651006)
(0.981193 0.00675469 -0.00524453)
(0.974847 0.00707211 -0.00430843)
(0.969275 0.0066815 -0.00356917)
(0.964476 0.00597156 -0.00296448)
(0.960372 0.00517448 -0.00245879)
(0.956867 0.00441618 -0.00202056)
(0.953861 0.00375437 -0.00162492)
(0.951262 0.00320801 -0.00125726)
(0.948974 0.00277698 -0.000909517)
(0.94694 0.00246362 -0.000589394)
(0.944946 0.00225703 -0.000287542)
(0.94333 0.00223716 -0.000121403)
(0.940193 0.00224112 0.000242796)
(0.999572 0.0107655 0.0029133)
(0.996682 0.0188139 0.00179872)
(0.994486 0.018032 -2.86591e-05)
(0.994633 0.0151507 -0.00141339)
(0.996235 0.0126518 -0.00226907)
(0.998131 0.0106826 -0.00273197)
(0.999582 0.00910067 -0.00294018)
(1.00032 0.00784117 -0.00298247)
(1.00036 0.00683127 -0.0029033)
(0.999834 0.00599557 -0.00273635)
(0.998868 0.00528587 -0.00251477)
(0.9976 0.00467784 -0.00226413)
(0.996148 0.00415741 -0.00200019)
(0.994605 0.00371432 -0.00173224)
(0.993041 0.00334234 -0.00146618)
(0.991498 0.00303892 -0.00120443)
(0.990028 0.00281598 -0.000950399)
(0.988632 0.00267461 -0.000694639)
(0.987506 0.0027284 -0.000464009)
(0.986214 0.00276208 -0.000122855)
(0.998182 -0.00310074 -0.00223778)
(0.994923 -0.00580836 -0.00446134)
(0.994317 -0.00536417 -0.00503079)
(0.995194 -0.00325095 -0.00463442)
(0.996332 -0.000744053 -0.0041525)
(0.997502 0.00145954 -0.00373431)
(0.998663 0.00313573 -0.00333782)
(0.999705 0.00429029 -0.00296953)
(1.00054 0.00499946 -0.00263954)
(1.00113 0.00535608 -0.00234214)
(1.00148 0.00545372 -0.00206979)
(1.0016 0.00537537 -0.00181765)
(1.00152 0.00518703 -0.00158165)
(1.00127 0.00493768 -0.0013581)
(1.00091 0.00466307 -0.00114414)
(1.00045 0.00438795 -0.000937122)
(0.999946 0.00413335 -0.000735714)
(0.999416 0.00390664 -0.000533519)
(0.998956 0.00374843 -0.000338401)
(0.998468 0.00349244 -0.000108618)
(0.999672 -0.000638631 -0.00278328)
(0.998565 -2.8733e-05 -0.00314233)
(0.997734 0.00122373 -0.00303908)
(0.997342 0.0021879 -0.00283653)
(0.997292 0.00289244 -0.00269505)
(0.997593 0.00347528 -0.0025788)
(0.998194 0.00395608 -0.00243813)
(0.998967 0.00432852 -0.0022774)
(0.999799 0.00459429 -0.0021084)
(1.00061 0.00475861 -0.00193353)
(1.00135 0.00483072 -0.00175394)
(1.00199 0.0048246 -0.00157215)
(1.00252 0.00475649 -0.00139021)
(1.00293 0.00464249 -0.00120913)
(1.00323 0.00449753 -0.00102929)
(1.00344 0.00433422 -0.000850482)
(1.00358 0.00416421 -0.000672191)
(1.00367 0.0039902 -0.000492027)
(1.00374 0.00382577 -0.000308755)
(1.00384 0.003557 -0.000136681)
(0.999788 -0.000110943 -0.00287217)
(0.999258 -1.59066e-05 -0.00308322)
(0.998735 0.000325966 -0.00305147)
(0.99847 0.00076664 -0.00294934)
(0.998454 0.0012971 -0.00279349)
(0.99864 0.00187702 -0.00261736)
(0.999003 0.00242885 -0.00242784)
(0.999509 0.00290471 -0.00223216)
(1.00011 0.00328948 -0.00203769)
(1.00077 0.00358161 -0.0018469)
(1.00146 0.00378611 -0.0016602)
(1.00214 0.00391282 -0.00147796)
(1.00279 0.00397386 -0.00130017)
(1.0034 0.00398151 -0.00112638)
(1.00396 0.00394711 -0.000955885)
(1.00447 0.00388017 -0.000787855)
(1.00494 0.00378841 -0.000621167)
(1.00536 0.00367285 -0.000455102)
(1.00574 0.00353614 -0.000284632)
(1.00622 0.0033112 -0.000155942)
(0.999828 1.46185e-05 -0.00288369)
(0.99957 0.000155401 -0.00302536)
(0.999316 0.00047722 -0.00289623)
(0.999189 0.000887385 -0.00274307)
(0.999206 0.00131029 -0.00257217)
(0.999347 0.00171508 -0.0024037)
(0.999613 0.00208104 -0.00223613)
(0.999995 0.00239638 -0.00206607)
(1.00047 0.00265845 -0.00189506)
(1.00102 0.00286814 -0.00172474)
(1.00163 0.00302784 -0.00155574)
(1.00226 0.00314145 -0.00138862)
(1.00291 0.00321391 -0.00122377)
(1.00356 0.00325036 -0.0010613)
(1.00421 0.00325563 -0.00090105)
(1.00483 0.00323364 -0.000742741)
(1.00544 0.00318719 -0.000585647)
(1.00602 0.00311505 -0.000430453)
(1.00656 0.00301604 -0.000270711)
(1.00725 0.00285478 -0.000169877)
(0.999849 5.04615e-05 -0.00285869)
(0.999709 0.000194021 -0.00297027)
(0.999582 0.000420772 -0.00280498)
(0.999535 0.000696468 -0.0026448)
(0.999595 0.000983251 -0.00248268)
(0.999756 0.00126618 -0.00232204)
(1.00001 0.00153298 -0.00216067)
(1.00036 0.0017718 -0.00199671)
(1.00079 0.00197638 -0.00183144)
(1.00128 0.00214511 -0.00166644)
(1.00183 0.00227882 -0.00150256)
(1.00242 0.00237987 -0.0013404)
(1.00304 0.00245138 -0.00118039)
(1.00368 0.00249655 -0.00102275)
(1.00433 0.0025182 -0.000867439)
(1.00498 0.00251834 -0.000714388)
(1.00563 0.00249797 -0.000563052)
(1.00628 0.00245573 -0.000414807)
(1.00689 0.00239012 -0.000262484)
(1.00767 0.00228465 -0.000178196)
(0.99986 5.03742e-05 -0.00282558)
(0.999775 0.000168182 -0.00292414)
(0.999716 0.000325011 -0.00274216)
(0.999719 0.000512285 -0.00257348)
(0.99981 0.000710019 -0.00241049)
(0.999985 0.00090559 -0.00225154)
(1.00024 0.00108964 -0.00209405)
(1.00058 0.00125444 -0.00193601)
(1.00099 0.00139599 -0.00177733)
(1.00145 0.00151346 -0.00161868)
(1.00197 0.00160768 -0.00146066)
(1.00253 0.00168033 -0.00130378)
(1.00313 0.00173355 -0.00114852)
(1.00375 0.00176939 -0.000995187)
(1.0044 0.00178952 -0.000843942)
(1.00505 0.00179497 -0.000694943)
(1.00572 0.00178602 -0.000547855)
(1.00639 0.00176163 -0.000404468)
(1.00701 0.00172079 -0.000257303)
(1.00785 0.0016568 -0.000182513)
(0.999865 3.42801e-05 -0.00279895)
(0.999807 0.000109795 -0.00289173)
(0.999782 0.000202582 -0.00270245)
(0.999813 0.000310987 -0.00252925)
(0.999919 0.000425519 -0.00236627)
(1.0001 0.000538929 -0.0022095)
(1.00036 0.000646182 -0.00205516)
(1.0007 0.000743143 -0.00190088)
(1.00109 0.000827277 -0.00174607)
(1.00155 0.000897738 -0.00159104)
(1.00206 0.000954754 -0.00143631)
(1.00261 0.000999191 -0.00128241)
(1.00319 0.00103223 -0.00112984)
(1.00381 0.00105507 -0.00097898)
(1.00444 0.00106869 -0.000830107)
(1.00509 0.00107366 -0.000683511)
(1.00575 0.00107011 -0.000538973)
(1.00643 0.00105751 -0.000398479)
(1.00706 0.00103541 -0.000254397)
(1.00792 0.00100157 -0.000184577)
(0.999868 1.19788e-05 -0.00278456)
(0.99982 3.78894e-05 -0.00287501)
(0.99981 6.8715e-05 -0.00268299)
(0.999852 0.000104297 -0.00250786)
(0.999966 0.000141913 -0.00234479)
(1.00015 0.000179255 -0.00218892)
(1.00041 0.000214685 -0.00203593)
(1.00075 0.000246835 -0.00188334)
(1.00114 0.000274809 -0.0017304)
(1.00159 0.000298276 -0.00157721)
(1.0021 0.000317291 -0.00142419)
(1.00264 0.000332137 -0.00127185)
(1.00322 0.000343211 -0.00112068)
(1.00383 0.000350918 -0.000971111)
(1.00446 0.000355585 -0.00082345)
(1.00511 0.000357409 -0.000678056)
(1.00577 0.000356431 -0.000534773)
(1.00644 0.000352499 -0.000395665)
(1.00708 0.000345489 -0.000253046)
(1.00794 0.000334934 -0.000185361)
(0.999868 -1.19801e-05 -0.00278456)
(0.99982 -3.7894e-05 -0.00287501)
(0.99981 -6.87224e-05 -0.00268299)
(0.999852 -0.000104305 -0.00250786)
(0.999966 -0.00014192 -0.00234479)
(1.00015 -0.00017926 -0.00218892)
(1.00041 -0.00021469 -0.00203593)
(1.00075 -0.000246839 -0.00188334)
(1.00114 -0.000274813 -0.0017304)
(1.00159 -0.000298278 -0.00157721)
(1.0021 -0.00031729 -0.00142419)
(1.00264 -0.000332132 -0.00127185)
(1.00322 -0.000343201 -0.00112068)
(1.00383 -0.000350902 -0.000971111)
(1.00446 -0.000355563 -0.000823449)
(1.00511 -0.000357379 -0.000678056)
(1.00577 -0.000356392 -0.000534772)
(1.00644 -0.00035245 -0.000395665)
(1.00708 -0.000345429 -0.000253046)
(1.00794 -0.000334863 -0.000185361)
(0.999865 -3.42814e-05 -0.00279895)
(0.999807 -0.000109799 -0.00289173)
(0.999782 -0.00020259 -0.00270245)
(0.999813 -0.000310995 -0.00252925)
(0.999919 -0.000425526 -0.00236627)
(1.0001 -0.000538934 -0.0022095)
(1.00036 -0.000646186 -0.00205516)
(1.0007 -0.000743147 -0.00190088)
(1.00109 -0.000827281 -0.00174607)
(1.00155 -0.00089774 -0.00159104)
(1.00206 -0.000954753 -0.00143631)
(1.00261 -0.000999186 -0.00128241)
(1.00319 -0.00103222 -0.00112984)
(1.00381 -0.00105506 -0.00097898)
(1.00444 -0.00106867 -0.000830107)
(1.00509 -0.00107363 -0.00068351)
(1.00575 -0.00107007 -0.000538972)
(1.00643 -0.00105747 -0.000398479)
(1.00706 -0.00103535 -0.000254397)
(1.00792 -0.0010015 -0.000184577)
(0.99986 -5.03754e-05 -0.00282558)
(0.999775 -0.000168186 -0.00292414)
(0.999716 -0.000325018 -0.00274216)
(0.999719 -0.000512293 -0.00257349)
(0.99981 -0.000710026 -0.00241049)
(0.999985 -0.000905594 -0.00225154)
(1.00024 -0.00108964 -0.00209405)
(1.00058 -0.00125444 -0.00193601)
(1.00099 -0.00139599 -0.00177733)
(1.00145 -0.00151346 -0.00161868)
(1.00197 -0.00160768 -0.00146066)
(1.00253 -0.00168033 -0.00130378)
(1.00313 -0.00173354 -0.00114852)
(1.00375 -0.00176937 -0.000995186)
(1.0044 -0.0017895 -0.000843941)
(1.00505 -0.00179494 -0.000694942)
(1.00572 -0.00178598 -0.000547855)
(1.00639 -0.00176159 -0.000404468)
(1.00701 -0.00172074 -0.000257303)
(1.00785 -0.00165673 -0.000182513)
(0.999849 -5.04625e-05 -0.00285869)
(0.999709 -0.000194025 -0.00297027)
(0.999582 -0.000420778 -0.00280498)
(0.999535 -0.000696475 -0.0026448)
(0.999595 -0.000983257 -0.00248269)
(0.999756 -0.00126618 -0.00232205)
(1.00001 -0.00153298 -0.00216067)
(1.00036 -0.00177181 -0.00199671)
(1.00079 -0.00197638 -0.00183144)
(1.00128 -0.00214511 -0.00166644)
(1.00183 -0.00227882 -0.00150256)
(1.00242 -0.00237987 -0.00134039)
(1.00304 -0.00245137 -0.00118039)
(1.00368 -0.00249653 -0.00102275)
(1.00433 -0.00251818 -0.000867438)
(1.00498 -0.00251831 -0.000714386)
(1.00563 -0.00249793 -0.000563051)
(1.00628 -0.00245568 -0.000414807)
(1.00689 -0.00239007 -0.000262484)
(1.00767 -0.00228459 -0.000178196)
(0.999828 -1.46195e-05 -0.00288369)
(0.99957 -0.000155404 -0.00302536)
(0.999316 -0.000477226 -0.00289624)
(0.999189 -0.000887392 -0.00274307)
(0.999206 -0.0013103 -0.00257217)
(0.999347 -0.00171508 -0.0024037)
(0.999613 -0.00208104 -0.00223613)
(0.999995 -0.00239638 -0.00206607)
(1.00047 -0.00265845 -0.00189506)
(1.00102 -0.00286815 -0.00172474)
(1.00163 -0.00302784 -0.00155574)
(1.00226 -0.00314144 -0.00138862)
(1.00291 -0.0032139 -0.00122377)
(1.00356 -0.00325035 -0.0010613)
(1.00421 -0.00325561 -0.000901049)
(1.00483 -0.00323362 -0.000742739)
(1.00544 -0.00318716 -0.000585646)
(1.00602 -0.00311502 -0.000430452)
(1.00656 -0.00301599 -0.00027071)
(1.00725 -0.00285472 -0.000169877)
(0.999788 0.000110942 -0.00287217)
(0.999258 1.59038e-05 -0.00308322)
(0.998735 -0.00032597 -0.00305147)
(0.99847 -0.000766645 -0.00294934)
(0.998454 -0.0012971 -0.0027935)
(0.99864 -0.00187702 -0.00261737)
(0.999003 -0.00242885 -0.00242784)
(0.999509 -0.00290471 -0.00223216)
(1.00011 -0.00328948 -0.00203769)
(1.00077 -0.00358161 -0.0018469)
(1.00146 -0.00378611 -0.0016602)
(1.00214 -0.00391281 -0.00147796)
(1.00279 -0.00397386 -0.00130017)
(1.0034 -0.0039815 -0.00112638)
(1.00396 -0.0039471 -0.000955884)
(1.00447 -0.00388015 -0.000787854)
(1.00494 -0.00378839 -0.000621166)
(1.00536 -0.00367281 -0.000455101)
(1.00574 -0.00353609 -0.000284631)
(1.00622 -0.00331114 -0.000155942)
(0.999672 0.00063863 -0.00278329)
(0.998565 2.87309e-05 -0.00314234)
(0.997734 -0.00122374 -0.00303908)
(0.997342 -0.00218791 -0.00283654)
(0.997292 -0.00289245 -0.00269505)
(0.997593 -0.00347528 -0.0025788)
(0.998194 -0.00395608 -0.00243813)
(0.998967 -0.00432852 -0.0022774)
(0.999799 -0.00459429 -0.0021084)
(1.00061 -0.00475861 -0.00193353)
(1.00135 -0.00483072 -0.00175394)
(1.00199 -0.0048246 -0.00157215)
(1.00252 -0.00475649 -0.00139021)
(1.00293 -0.00464248 -0.00120912)
(1.00323 -0.00449752 -0.00102929)
(1.00344 -0.00433421 -0.00085048)
(1.00358 -0.00416419 -0.00067219)
(1.00367 -0.00399017 -0.000492026)
(1.00374 -0.00382573 -0.000308753)
(1.00384 -0.00355696 -0.00013668)
(0.998182 0.00310074 -0.00223778)
(0.994923 0.00580836 -0.00446134)
(0.994317 0.00536416 -0.0050308)
(0.995194 0.00325095 -0.00463442)
(0.996332 0.00074405 -0.0041525)
(0.997502 -0.00145955 -0.00373431)
(0.998663 -0.00313573 -0.00333783)
(0.999705 -0.00429029 -0.00296953)
(1.00054 -0.00499946 -0.00263954)
(1.00113 -0.00535608 -0.00234214)
(1.00148 -0.00545372 -0.00206979)
(1.0016 -0.00537537 -0.00181765)
(1.00152 -0.00518702 -0.00158165)
(1.00127 -0.00493768 -0.0013581)
(1.00091 -0.00466307 -0.00114414)
(1.00045 -0.00438794 -0.000937119)
(0.999946 -0.00413334 -0.00073571)
(0.999416 -0.00390662 -0.000533515)
(0.998956 -0.00374841 -0.000338398)
(0.998469 -0.0034924 -0.000108617)
(0.999572 -0.0107655 0.0029133)
(0.996682 -0.0188139 0.00179871)
(0.994486 -0.018032 -2.86635e-05)
(0.994633 -0.0151507 -0.00141339)
(0.996235 -0.0126518 -0.00226907)
(0.998131 -0.0106826 -0.00273198)
(0.999582 -0.00910067 -0.00294018)
(1.00032 -0.00784117 -0.00298247)
(1.00036 -0.00683127 -0.0029033)
(0.999834 -0.00599557 -0.00273635)
(0.998868 -0.00528587 -0.00251477)
(0.9976 -0.00467784 -0.00226413)
(0.996148 -0.00415741 -0.00200019)
(0.994605 -0.00371432 -0.00173224)
(0.993041 -0.00334234 -0.00146618)
(0.991498 -0.00303892 -0.00120443)
(0.990028 -0.00281598 -0.000950396)
(0.988632 -0.00267461 -0.000694636)
(0.987506 -0.00272838 -0.000464004)
(0.986214 -0.00276205 -0.00012285)
(0.998907 0.0550128 -0.0290345)
(1.00688 0.0530299 -0.0254797)
(1.01122 0.0342657 -0.0169319)
(1.00859 0.0177035 -0.0128473)
(1.0025 0.00599616 -0.0103871)
(0.995397 -0.00124797 -0.0082477)
(0.988153 -0.00511518 -0.00651006)
(0.981193 -0.00675469 -0.00524453)
(0.974847 -0.00707211 -0.00430843)
(0.969275 -0.0066815 -0.00356917)
(0.964475 -0.00597156 -0.00296448)
(0.960372 -0.00517448 -0.00245879)
(0.956867 -0.00441618 -0.00202056)
(0.953861 -0.00375437 -0.00162492)
(0.951262 -0.00320801 -0.00125726)
(0.948974 -0.00277698 -0.000909518)
(0.94694 -0.00246361 -0.000589396)
(0.944946 -0.00225701 -0.000287547)
(0.94333 -0.0022371 -0.000121409)
(0.940193 -0.00224104 0.000242789)
(1.00064 -0.0555909 0.000289693)
(1.00923 -0.0561042 0.000281705)
(1.01449 -0.0402382 0.000312775)
(1.01392 -0.0257843 0.000301352)
(1.00984 -0.0147423 0.000168412)
(1.00442 -0.00689508 1.34544e-05)
(0.998397 -0.00166042 -0.000103908)
(0.992135 0.00162842 -0.000177773)
(0.985983 0.00354018 -0.000216498)
(0.980184 0.00450251 -0.000228116)
(0.974854 0.00483412 -0.000221125)
(0.970029 0.00477293 -0.000204223)
(0.965712 0.00449053 -0.00018436)
(0.961877 0.00410463 -0.000165989)
(0.958482 0.0036935 -0.000151561)
(0.955459 0.00330613 -0.000141511)
(0.952772 0.00298291 -0.000135845)
(0.950182 0.00273544 -0.000127364)
(0.948142 0.00268402 -0.000116435)
(0.944423 0.00258122 -6.06771e-05)
(0.999755 0.0100169 0.000453415)
(0.997224 0.0187471 0.000421148)
(0.994996 0.0193295 0.000444396)
(0.994681 0.0170518 0.000596685)
(0.996284 0.0143972 0.000772233)
(0.998622 0.0119436 0.000870821)
(1.00076 0.00985618 0.00088216)
(1.00226 0.00821709 0.000829823)
(1.00302 0.00698615 0.000738775)
(1.00309 0.00605688 0.000629443)
(1.00257 0.00533144 0.000516653)
(1.0016 0.00474372 0.000409656)
(1.00031 0.00425328 0.000313378)
(0.99882 0.00383672 0.000229859)
(0.997228 0.00348342 0.000159379)
(0.995612 0.00319025 0.000100881)
(0.994041 0.00297175 5.25252e-05)
(0.99252 0.00282538 1.5368e-05)
(0.99131 0.00287658 -1.169e-05)
(0.989919 0.00289123 -2.31543e-05)
(0.998457 -0.00325636 0.000193092)
(0.995123 -0.00668522 0.000189226)
(0.994341 -0.00715297 0.000202608)
(0.995263 -0.00570103 0.000241205)
(0.996559 -0.00348425 0.000290046)
(0.997858 -0.00124891 0.000320713)
(0.999121 0.000680372 0.000330332)
(1.00027 0.00221 0.000325934)
(1.00124 0.0033376 0.000310756)
(1.00199 0.0041016 0.000287019)
(1.0025 0.00456283 0.000257609)
(1.00279 0.00478862 0.000225071)
(1.00286 0.0048415 0.000191266)
(1.00276 0.00477464 0.000157606)
(1.0025 0.00463163 0.000125142)
(1.00213 0.00444692 9.45587e-05)
(1.00169 0.00425241 6.62772e-05)
(1.00121 0.00405931 4.11784e-05)
(1.00079 0.00392191 2.03507e-05)
(1.00034 0.00363524 -1.35346e-06)
(1.00002 -0.000676257 0.0002291)
(0.999207 -0.000152388 0.000271508)
(0.99854 0.0011394 0.000305561)
(0.998187 0.00213073 0.000337868)
(0.998067 0.00272651 0.000363871)
(0.998232 0.00312337 0.000376069)
(0.998688 0.00343464 0.000373158)
(0.999341 0.00370355 0.000358466)
(1.00009 0.00394139 0.000334846)
(1.00086 0.00414055 0.000305009)
(1.00161 0.0042888 0.000271723)
(1.00228 0.00437925 0.000237109)
(1.00286 0.00441226 0.00020256)
(1.00333 0.00439368 0.00016901)
(1.00371 0.00433282 0.000137074)
(1.00399 0.00423999 0.000107083)
(1.0042 0.00412732 7.92575e-05)
(1.00435 0.00399669 5.35754e-05)
(1.00448 0.00386864 3.14981e-05)
(1.00466 0.00360248 7.50345e-06)
(1.00008 -0.000164575 0.000201851)
(0.999668 -0.000206488 0.000214192)
(0.999209 -1.86327e-05 0.000224374)
(0.998992 0.000274586 0.000236192)
(0.999002 0.000682646 0.000245451)
(0.999178 0.00118263 0.000251313)
(0.999493 0.0017004 0.000251911)
(0.999922 0.00218185 0.000247158)
(1.00044 0.00260417 0.000237603)
(1.00102 0.00295749 0.000223855)
(1.00164 0.00323793 0.00020675)
(1.00227 0.00344711 0.000187168)
(1.0029 0.00359077 0.000165889)
(1.00351 0.00367671 0.000143606)
(1.00407 0.00371355 0.000120922)
(1.0046 0.00370938 9.82952e-05)
(1.00509 0.00367185 7.61954e-05)
(1.00555 0.00360156 5.46081e-05)
(1.00596 0.00350499 3.5695e-05)
(1.0065 0.00329752 1.54625e-05)
(1.0001 -2.49737e-05 0.000181435)
(0.999917 3.49284e-05 0.000192863)
(0.999707 0.000288813 0.000207855)
(0.999627 0.000653986 0.000224336)
(0.999669 0.00103982 0.000234428)
(0.999806 0.00140619 0.00023879)
(1.00004 0.00173666 0.000237493)
(1.00037 0.00202678 0.000231136)
(1.00078 0.00227856 0.000220724)
(1.00126 0.00249381 0.000207099)
(1.0018 0.0026729 0.000191047)
(1.00238 0.00281627 0.000173279)
(1.00298 0.00292517 0.000154357)
(1.0036 0.00300147 0.000134725)
(1.00421 0.00304741 0.000114759)
(1.00482 0.00306501 9.47413e-05)
(1.00542 0.00305597 7.50447e-05)
(1.00601 0.00301815 5.55263e-05)
(1.00655 0.00295164 3.85518e-05)
(1.00728 0.00281005 2.16537e-05)
(1.00011 2.35595e-05 0.000166856)
(1.00001 0.00011206 0.000174991)
(0.9999 0.000286857 0.000186784)
(0.999878 0.000518819 0.000199366)
(0.999952 0.000768701 0.000205238)
(1.00011 0.00102114 0.000206568)
(1.00035 0.00126598 0.000204491)
(1.00067 0.00149253 0.000199272)
(1.00106 0.00169429 0.00019128)
(1.0015 0.0018688 0.000180884)
(1.002 0.00201557 0.000168464)
(1.00254 0.00213527 0.000154418)
(1.00311 0.00222933 0.00013911)
(1.0037 0.00229945 0.000122864)
(1.00432 0.0023472 0.00010599)
(1.00494 0.0023736 8.87401e-05)
(1.00557 0.00237901 7.14983e-05)
(1.0062 0.00236154 5.41353e-05)
(1.00679 0.00232006 3.91347e-05)
(1.0076 0.00223154 2.52649e-05)
(1.00011 3.25778e-05 0.000156502)
(1.00005 0.000114511 0.000162082)
(0.999991 0.000238106 0.000172329)
(1.00001 0.00039832 0.000184093)
(1.00011 0.000575266 0.000189591)
(1.00028 0.00075473 0.000190866)
(1.00053 0.000926827 0.000189177)
(1.00084 0.00108393 0.000184685)
(1.00122 0.00122217 0.00017765)
(1.00165 0.0013407 0.000168421)
(1.00213 0.00144004 0.00015734)
(1.00265 0.00152127 0.000144744)
(1.0032 0.00158577 0.000130947)
(1.00378 0.00163487 0.000116229)
(1.00439 0.00166957 0.000100862)
(1.00501 0.00169036 8.50685e-05)
(1.00564 0.0016971 6.92141e-05)
(1.00629 0.00168841 5.31628e-05)
(1.00689 0.00166324 3.94008e-05)
(1.00773 0.00161106 2.73958e-05)
(1.00011 2.41143e-05 0.00014989)
(1.00006 7.93848e-05 0.000153874)
(1.00003 0.000153546 0.000163127)
(1.00007 0.000246457 0.000174176)
(1.00018 0.000348814 0.000179087)
(1.00036 0.000452678 0.000179897)
(1.00061 0.000552824 0.000178081)
(1.00092 0.000645238 0.000173875)
(1.0013 0.000727403 0.000167469)
(1.00172 0.000798348 0.000159125)
(1.0022 0.000858048 0.000149091)
(1.00271 0.000907005 0.000137617)
(1.00326 0.000946008 0.000124958)
(1.00383 0.000975886 0.000111356)
(1.00443 0.000997294 9.70598e-05)
(1.00505 0.00101055 8.22811e-05)
(1.00568 0.0010156 6.73798e-05)
(1.00632 0.00101174 5.22249e-05)
(1.00693 0.000998415 3.92945e-05)
(1.00779 0.000971434 2.84061e-05)
(1.00011 8.67319e-06 0.00014668)
(1.00007 2.8037e-05 0.000149899)
(1.00005 5.28676e-05 0.000158661)
(1.0001 8.34421e-05 0.000169375)
(1.00021 0.000117147 0.000174077)
(1.0004 0.000151487 0.000174791)
(1.00065 0.000184731 0.00017304)
(1.00096 0.000215498 0.000169059)
(1.00133 0.000242863 0.000162988)
(1.00175 0.000266445 0.000155051)
(1.00223 0.000286231 0.000145471)
(1.00274 0.000302408 0.000134474)
(1.00328 0.000315265 0.000122296)
(1.00385 0.000325101 0.00010917)
(1.00445 0.000332153 9.5337e-05)
(1.00506 0.000336543 8.10045e-05)
(1.00569 0.000338256 6.65301e-05)
(1.00634 0.00033709 5.17833e-05)
(1.00694 0.000332872 3.92321e-05)
(1.00781 0.000324523 2.88219e-05)
(1.00011 -8.67445e-06 0.00014668)
(1.00007 -2.80414e-05 0.000149899)
(1.00005 -5.2875e-05 0.000158661)
(1.0001 -8.34508e-05 0.000169375)
(1.00021 -0.000117155 0.000174077)
(1.0004 -0.000151493 0.000174791)
(1.00065 -0.000184736 0.00017304)
(1.00096 -0.000215502 0.000169059)
(1.00133 -0.000242867 0.000162988)
(1.00175 -0.000266448 0.000155051)
(1.00223 -0.000286232 0.000145471)
(1.00274 -0.000302405 0.000134474)
(1.00328 -0.000315257 0.000122296)
(1.00385 -0.000325087 0.00010917)
(1.00445 -0.000332134 9.5337e-05)
(1.00506 -0.000336516 8.10045e-05)
(1.00569 -0.000338221 6.65301e-05)
(1.00634 -0.000337044 5.17833e-05)
(1.00694 -0.000332816 3.92321e-05)
(1.00781 -0.000324455 2.88219e-05)
(1.00011 -2.41155e-05 0.00014989)
(1.00006 -7.93891e-05 0.000153874)
(1.00003 -0.000153553 0.000163127)
(1.00007 -0.000246465 0.000174176)
(1.00018 -0.000348822 0.000179087)
(1.00036 -0.000452683 0.000179897)
(1.00061 -0.000552829 0.000178081)
(1.00092 -0.000645242 0.000173875)
(1.0013 -0.000727407 0.000167469)
(1.00172 -0.000798351 0.000159125)
(1.0022 -0.000858049 0.000149091)
(1.00271 -0.000907002 0.000137617)
(1.00326 -0.000946 0.000124958)
(1.00383 -0.000975873 0.000111356)
(1.00443 -0.000997275 9.70598e-05)
(1.00505 -0.00101053 8.22811e-05)
(1.00568 -0.00101556 6.73798e-05)
(1.00632 -0.0010117 5.22249e-05)
(1.00693 -0.000998359 3.92945e-05)
(1.00779 -0.000971367 2.84061e-05)
(1.00011 -3.25789e-05 0.000156502)
(1.00005 -0.000114515 0.000162082)
(0.999991 -0.000238113 0.000172329)
(1.00001 -0.000398328 0.000184093)
(1.00011 -0.000575273 0.000189591)
(1.00028 -0.000754735 0.000190866)
(1.00053 -0.000926831 0.000189177)
(1.00084 -0.00108394 0.000184685)
(1.00122 -0.00122217 0.000177649)
(1.00165 -0.0013407 0.00016842)
(1.00213 -0.00144004 0.00015734)
(1.00265 -0.00152127 0.000144744)
(1.0032 -0.00158576 0.000130947)
(1.00378 -0.00163485 0.000116229)
(1.00439 -0.00166955 0.000100862)
(1.00501 -0.00169033 8.50684e-05)
(1.00564 -0.00169707 6.92141e-05)
(1.00629 -0.00168837 5.31628e-05)
(1.00689 -0.00166318 3.94008e-05)
(1.00773 -0.00161099 2.73959e-05)
(1.00011 -2.35605e-05 0.000166856)
(1.00001 -0.000112064 0.000174991)
(0.9999 -0.000286863 0.000186784)
(0.999878 -0.000518826 0.000199366)
(0.999952 -0.000768707 0.000205238)
(1.00011 -0.00102114 0.000206568)
(1.00035 -0.00126598 0.000204491)
(1.00067 -0.00149253 0.000199272)
(1.00106 -0.00169429 0.00019128)
(1.0015 -0.0018688 0.000180884)
(1.002 -0.00201557 0.000168464)
(1.00254 -0.00213527 0.000154418)
(1.00311 -0.00222932 0.00013911)
(1.0037 -0.00229944 0.000122864)
(1.00432 -0.00234719 0.00010599)
(1.00494 -0.00237358 8.874e-05)
(1.00557 -0.00237898 7.14983e-05)
(1.0062 -0.0023615 5.41352e-05)
(1.00679 -0.00232001 3.91346e-05)
(1.0076 -0.00223148 2.52649e-05)
(1.0001 2.49728e-05 0.000181435)
(0.999917 -3.49316e-05 0.000192863)
(0.999707 -0.000288818 0.000207855)
(0.999627 -0.000653992 0.000224336)
(0.999669 -0.00103983 0.000234428)
(0.999806 -0.00140619 0.00023879)
(1.00004 -0.00173666 0.000237493)
(1.00037 -0.00202679 0.000231135)
(1.00078 -0.00227856 0.000220723)
(1.00126 -0.00249382 0.000207099)
(1.0018 -0.0026729 0.000191047)
(1.00238 -0.00281627 0.000173279)
(1.00298 -0.00292517 0.000154356)
(1.0036 -0.00300146 0.000134725)
(1.00421 -0.0030474 0.000114759)
(1.00482 -0.00306499 9.47412e-05)
(1.00542 -0.00305594 7.50447e-05)
(1.00601 -0.00301811 5.55262e-05)
(1.00655 -0.0029516 3.85518e-05)
(1.00728 -0.00280999 2.16537e-05)
(1.00008 0.000164574 0.000201851)
(0.999668 0.000206486 0.000214192)
(0.999209 1.86283e-05 0.000224374)
(0.998992 -0.000274592 0.000236192)
(0.999002 -0.000682651 0.000245451)
(0.999178 -0.00118264 0.000251313)
(0.999493 -0.0017004 0.000251911)
(0.999922 -0.00218186 0.000247158)
(1.00044 -0.00260417 0.000237603)
(1.00102 -0.0029575 0.000223855)
(1.00164 -0.00323793 0.00020675)
(1.00227 -0.00344711 0.000187168)
(1.0029 -0.00359077 0.000165889)
(1.00351 -0.00367671 0.000143606)
(1.00407 -0.00371354 0.000120922)
(1.0046 -0.00370937 9.82955e-05)
(1.00509 -0.00367183 7.61958e-05)
(1.00555 -0.00360153 5.46084e-05)
(1.00596 -0.00350494 3.56953e-05)
(1.0065 -0.00329747 1.54626e-05)
(1.00002 0.000676257 0.0002291)
(0.999207 0.000152386 0.000271508)
(0.99854 -0.0011394 0.000305561)
(0.998187 -0.00213073 0.000337868)
(0.998067 -0.00272651 0.000363871)
(0.998232 -0.00312337 0.000376069)
(0.998688 -0.00343465 0.000373157)
(0.999341 -0.00370355 0.000358466)
(1.00009 -0.00394139 0.000334845)
(1.00086 -0.00414056 0.000305008)
(1.00161 -0.00428881 0.000271723)
(1.00228 -0.00437925 0.000237109)
(1.00286 -0.00441226 0.00020256)
(1.00333 -0.00439368 0.00016901)
(1.00371 -0.00433281 0.000137074)
(1.00399 -0.00423998 0.000107083)
(1.0042 -0.00412731 7.92579e-05)
(1.00435 -0.00399667 5.35759e-05)
(1.00448 -0.00386861 3.14988e-05)
(1.00466 -0.00360244 7.50381e-06)
(0.998457 0.00325636 0.000193092)
(0.995123 0.00668522 0.000189226)
(0.994341 0.00715297 0.000202608)
(0.995263 0.00570102 0.000241205)
(0.996559 0.00348424 0.000290047)
(0.997858 0.00124891 0.000320713)
(0.999121 -0.000680373 0.000330332)
(1.00027 -0.00221 0.000325934)
(1.00124 -0.0033376 0.000310756)
(1.00199 -0.0041016 0.000287019)
(1.0025 -0.00456283 0.000257609)
(1.00279 -0.00478862 0.00022507)
(1.00286 -0.00484149 0.000191266)
(1.00276 -0.00477463 0.000157606)
(1.0025 -0.00463162 0.000125142)
(1.00213 -0.00444692 9.45581e-05)
(1.00169 -0.0042524 6.62767e-05)
(1.00121 -0.0040593 4.11779e-05)
(1.00079 -0.00392189 2.03505e-05)
(1.00034 -0.0036352 -1.35358e-06)
(0.999755 -0.0100169 0.000453415)
(0.997224 -0.0187471 0.000421148)
(0.994996 -0.0193295 0.000444396)
(0.994681 -0.0170518 0.000596685)
(0.996284 -0.0143972 0.000772233)
(0.998622 -0.0119436 0.000870821)
(1.00076 -0.00985618 0.000882161)
(1.00226 -0.00821709 0.000829823)
(1.00302 -0.00698615 0.000738775)
(1.00309 -0.00605688 0.000629443)
(1.00257 -0.00533144 0.000516653)
(1.0016 -0.00474372 0.000409657)
(1.00031 -0.00425328 0.000313379)
(0.99882 -0.00383672 0.00022986)
(0.997228 -0.00348342 0.000159381)
(0.995612 -0.00319025 0.000100883)
(0.994041 -0.00297176 5.25287e-05)
(0.99252 -0.00282538 1.53716e-05)
(0.99131 -0.00287657 -1.1688e-05)
(0.989919 -0.0028912 -2.31534e-05)
(1.00064 0.0555909 0.000289695)
(1.00923 0.0561042 0.000281705)
(1.01449 0.0402382 0.000312775)
(1.01392 0.0257843 0.000301352)
(1.00984 0.0147423 0.000168412)
(1.00442 0.00689508 1.34542e-05)
(0.998397 0.00166042 -0.000103908)
(0.992135 -0.00162842 -0.000177773)
(0.985983 -0.00354018 -0.000216499)
(0.980184 -0.00450251 -0.000228117)
(0.974854 -0.00483412 -0.000221126)
(0.970029 -0.00477293 -0.000204224)
(0.965712 -0.00449053 -0.000184361)
(0.961877 -0.00410462 -0.00016599)
(0.958483 -0.0036935 -0.000151561)
(0.955459 -0.00330613 -0.00014151)
(0.952772 -0.0029829 -0.000135842)
(0.950182 -0.00273541 -0.00012736)
(0.948142 -0.00268396 -0.000116432)
(0.944423 -0.00258113 -6.06747e-05)
(0.999797 -0.055553 0.000178333)
(1.00844 -0.0563392 0.000405795)
(1.01404 -0.0411534 0.000474072)
(1.01394 -0.02764 0.000467177)
(1.01053 -0.0175429 0.000413429)
(1.00594 -0.0104296 0.000340919)
(1.00087 -0.00561198 0.000271252)
(0.995618 -0.00240953 0.000210269)
(0.990454 -0.000299048 0.000158661)
(0.985564 0.00107087 0.000117209)
(0.981012 0.00193488 8.51542e-05)
(0.976806 0.00245494 5.9795e-05)
(0.972936 0.00274335 3.801e-05)
(0.969381 0.00287725 1.73316e-05)
(0.966119 0.00291137 -3.98969e-06)
(0.963101 0.0028845 -2.64355e-05)
(0.960333 0.00283853 -4.91318e-05)
(0.957579 0.00278601 -6.80159e-05)
(0.955405 0.00287066 -7.14061e-05)
(0.951404 0.00280165 -6.64964e-05)
(0.999648 0.0102929 0.000237681)
(0.996994 0.0192212 0.000302079)
(0.994734 0.0200386 0.00034997)
(0.994259 0.0181647 0.000412196)
(0.995622 0.0159112 0.000490377)
(0.997839 0.0136771 0.000570925)
(1.0001 0.0115697 0.000639455)
(1.00201 0.00972726 0.000685576)
(1.0034 0.0082084 0.000704022)
(1.00425 0.00698946 0.000695126)
(1.00457 0.00602067 0.000662991)
(1.00442 0.00525312 0.000613148)
(1.00387 0.00464296 0.00055121)
(1.00301 0.00415293 0.000482158)
(1.00191 0.00375621 0.000409692)
(1.00065 0.00343458 0.000336896)
(0.999322 0.00319311 0.000265791)
(0.997931 0.00301472 0.000196629)
(0.996805 0.00303505 0.000130593)
(0.995402 0.00297813 4.63587e-05)
(0.998311 -0.00330747 0.000146678)
(0.994981 -0.00667572 0.000174794)
(0.994223 -0.00724277 0.000201124)
(0.995119 -0.00616754 0.000226409)
(0.996376 -0.00446058 0.000250011)
(0.997644 -0.00268384 0.000270632)
(0.998906 -0.00105699 0.000287401)
(1.00011 0.000351102 0.000301185)
(1.0012 0.00151404 0.0003107)
(1.00214 0.00242675 0.000313837)
(1.00291 0.0031061 0.000309571)
(1.0035 0.00358306 0.000297796)
(1.0039 0.00389274 0.000278961)
(1.00412 0.00406889 0.000253987)
(1.00417 0.00414286 0.000224003)
(1.00409 0.00414156 0.000190176)
(1.00389 0.00409462 0.000153553)
(1.0036 0.00400857 0.000113998)
(1.00334 0.0039522 7.39092e-05)
(1.003 0.00368431 2.04804e-05)
(0.999883 -0.000664426 0.000166029)
(0.999074 -0.000121643 0.000220862)
(0.998501 0.00116265 0.000252722)
(0.998263 0.00216593 0.000279989)
(0.998214 0.0027713 0.000307296)