/*--------------------------------*- C++ -*----------------------------------*\
  =========                 |
  \\      /  F ield         | OpenFOAM: The Open Source CFD Toolbox
   \\    /   O peration     | Website:  https://openfoam.org
    \\  /    A nd           | Version:  9
     \\/     M anipulation  |
\*---------------------------------------------------------------------------*/
FoamFile
{
    format      ascii;
    class       volScalarField;
    location    "300";
    object      nut;
}
// * * * * * * * * * * * * * * * * * * * * * * * * * * * * * * * * * * * * * //

dimensions      [0 2 -1 0 0 0 0];

internalField   nonuniform List<scalar> 
8000
(
0.0017234
0.00173913
0.00180495
0.0018989
0.00200149
0.00210174
0.00219453
0.00227813
0.00235259
0.00241875
0.00247774
0.00253067
0.00257853
0.00262215
0.00266223
0.00269929
0.00273371
0.00276565
0.00279478
0.00281877
0.00775997
0.0086906
0.00955366
0.0102631
0.0108565
0.0113704
0.01183
0.012251
0.0126435
0.0130139
0.0133662
0.0137029
0.0140256
0.0143356
0.0146334
0.0149194
0.0151928
0.0154506
0.0156818
0.0158521
0.00851884
0.0100249
0.0113707
0.0124934
0.0134357
0.0142455
0.0149615
0.0156108
0.0162118
0.0167766
0.0173127
0.0178251
0.018317
0.0187904
0.0192466
0.019686
0.0201075
0.0205055
0.0208618
0.021121
0.00862469
0.0103517
0.0119356
0.0132912
0.0144527
0.0154653
0.0163679
0.0171896
0.017951
0.0186659
0.0193437
0.0199905
0.0206107
0.0212069
0.021781
0.0223336
0.0228631
0.0233617
0.0238051
0.0241229
0.00863971
0.0104337
0.012112
0.0135787
0.0148594
0.0159937
0.0170172
0.0179573
0.0188337
0.0196599
0.0204453
0.0211961
0.0219166
0.0226098
0.0232775
0.0239202
0.0245355
0.0251136
0.0256248
0.0259874
0.0086415
0.0104552
0.0121681
0.013682
0.0150199
0.016219
0.0173124
0.0183258
0.0192776
0.0201802
0.0210421
0.0218691
0.0226649
0.0234323
0.0241727
0.0248861
0.0255693
0.0262104
0.0267755
0.0271736
0.00864146
0.010461
0.0121861
0.0137189
0.0150824
0.0163131
0.0174436
0.0184987
0.0194959
0.0204468
0.0213592
0.0222382
0.0230871
0.023908
0.0247019
0.0254684
0.0262031
0.0268926
0.0274992
0.0279248
0.00864125
0.0104626
0.012192
0.0137322
0.0151065
0.0163518
0.0175006
0.0185776
0.0196001
0.0205793
0.0215226
0.0224346
0.0233181
0.0241749
0.0250056
0.0258091
0.0265804
0.0273045
0.0279412
0.0283869
0.00864109
0.010463
0.012194
0.0137369
0.0151156
0.0163672
0.0175244
0.0186121
0.0196475
0.0206418
0.0216021
0.0225329
0.0234368
0.0243153
0.0251686
0.0259952
0.0267896
0.027536
0.0281921
0.0286508
0.00864101
0.0104631
0.0121946
0.0137384
0.0151187
0.0163726
0.017533
0.018625
0.0196656
0.0206663
0.0216341
0.0225734
0.0234866
0.0243752
0.0252391
0.0260768
0.0268823
0.0276395
0.0283051
0.0287702
0.00864101
0.0104631
0.0121946
0.0137384
0.0151187
0.0163726
0.017533
0.018625
0.0196656
0.0206663
0.0216341
0.0225734
0.0234866
0.0243752
0.0252391
0.0260768
0.0268823
0.0276395
0.0283051
0.0287702
0.00864109
0.010463
0.012194
0.0137369
0.0151156
0.0163672
0.0175244
0.0186121
0.0196475
0.0206418
0.0216021
0.0225329
0.0234368
0.0243153
0.0251686
0.0259952
0.0267896
0.027536
0.028192
0.0286508
0.00864125
0.0104626
0.012192
0.0137322
0.0151065
0.0163518
0.0175006
0.0185776
0.0196001
0.0205793
0.0215226
0.0224346
0.0233181
0.0241749
0.0250056
0.0258091
0.0265804
0.0273045
0.0279412
0.0283869
0.00864146
0.010461
0.0121861
0.0137189
0.0150824
0.0163131
0.0174436
0.0184987
0.0194959
0.0204468
0.0213592
0.0222382
0.0230871
0.023908
0.0247019
0.0254684
0.0262031
0.0268926
0.0274992
0.0279247
0.0086415
0.0104552
0.0121681
0.013682
0.0150199
0.016219
0.0173124
0.0183258
0.0192776
0.0201802
0.0210421
0.0218691
0.0226649
0.0234323
0.0241727
0.0248861
0.0255693
0.0262104
0.0267755
0.0271736
0.00863971
0.0104337
0.012112
0.0135787
0.0148594
0.0159937
0.0170172
0.0179573
0.0188337
0.0196599
0.0204453
0.0211961
0.0219166
0.0226098
0.0232775
0.0239202
0.0245355
0.0251136
0.0256248
0.0259874
0.00862469
0.0103517
0.0119356
0.0132912
0.0144527
0.0154653
0.0163679
0.0171896
0.017951
0.0186659
0.0193437
0.0199906
0.0206107
0.0212069
0.021781
0.0223336
0.0228631
0.0233617
0.0238051
0.0241229
0.00851884
0.0100249
0.0113707
0.0124934
0.0134357
0.0142455
0.0149615
0.0156108
0.0162118
0.0167766
0.0173127
0.0178251
0.018317
0.0187904
0.0192466
0.019686
0.0201075
0.0205055
0.0208618
0.021121
0.00775997
0.0086906
0.00955366
0.0102631
0.0108565
0.0113704
0.01183
0.012251
0.0126435
0.0130139
0.0133662
0.0137029
0.0140256
0.0143356
0.0146334
0.0149194
0.0151929
0.0154506
0.0156818
0.0158521
0.0017234
0.00173913
0.00180495
0.0018989
0.00200149
0.00210174
0.00219453
0.00227813
0.00235259
0.00241875
0.00247774
0.00253067
0.00257853
0.00262215
0.00266223
0.00269929
0.00273371
0.00276565
0.00279477
0.00281876
0.00167563
0.00158392
0.00152371
0.00149112
0.00148301
0.00149509
0.00152274
0.00156141
0.00160707
0.00165645
0.00170712
0.0017574
0.00180624
0.00185305
0.00189753
0.00193961
0.00197929
0.00201654
0.00205102
0.00208056
0.00742915
0.00659943
0.0063248
0.00636001
0.00656573
0.00686613
0.00721598
0.00758796
0.00796587
0.00834049
0.00870683
0.0090624
0.00940612
0.00973767
0.010057
0.0103642
0.0106585
0.0109374
0.0111909
0.0113854
0.0083491
0.0077013
0.00756939
0.00781984
0.00828094
0.00884208
0.00944039
0.0100424
0.0106317
0.0112015
0.0117497
0.0122766
0.0127836
0.0132719
0.0137426
0.0141962
0.0146322
0.0150458
0.0154209
0.0157025
0.00843
0.00787933
0.0078832
0.00830543
0.00895672
0.00971128
0.0104965
0.0112743
0.012027
0.0127483
0.0134378
0.0140973
0.0147293
0.0153365
0.0159205
0.0164826
0.0170217
0.0175315
0.0179903
0.018328
0.0084379
0.00791456
0.00797333
0.00847601
0.00922683
0.0100925
0.010994
0.0118885
0.0127557
0.0135882
0.0143847
0.0151473
0.0158784
0.0165809
0.0172566
0.0179065
0.0185291
0.0191165
0.0196417
0.0200234
0.0084386
0.00792231
0.00800002
0.00853543
0.00933208
0.0102544
0.0112205
0.0121848
0.013125
0.0140321
0.0149038
0.0157413
0.0165467
0.0173223
0.0180696
0.0187892
0.0194788
0.0201285
0.0207074
0.0211244
0.00843856
0.00792415
0.00800822
0.00855619
0.00937242
0.0103213
0.0113204
0.012323
0.013306
0.0142591
0.0151796
0.0160678
0.0169251
0.0177532
0.0185532
0.0193251
0.0200657
0.0207636
0.021384
0.0218289
0.00843849
0.00792459
0.00801076
0.00856339
0.00938763
0.0103484
0.0113631
0.0123854
0.0133916
0.0143712
0.015321
0.0162408
0.0171316
0.0179948
0.0188308
0.0196392
0.020416
0.0211483
0.021799
0.0222642
0.00843843
0.00792467
0.00801153
0.00856585
0.00939323
0.0103589
0.0113808
0.0124124
0.0134301
0.0144236
0.0153893
0.0163269
0.0172373
0.0181213
0.0189794
0.0198105
0.0206101
0.0213645
0.0220347
0.0225133
0.00843841
0.00792468
0.00801175
0.00856661
0.00939506
0.0103625
0.011387
0.0124223
0.0134448
0.014444
0.0154166
0.0163622
0.0172815
0.0181752
0.0190435
0.0198854
0.020696
0.0214612
0.0221409
0.022626
0.00843841
0.00792468
0.00801175
0.00856661
0.00939506
0.0103625
0.011387
0.0124223
0.0134448
0.014444
0.0154166
0.0163622
0.0172815
0.0181752
0.0190435
0.0198854
0.020696
0.0214612
0.0221409
0.022626
0.00843843
0.00792467
0.00801153
0.00856585
0.00939323
0.0103589
0.0113808
0.0124124
0.0134301
0.0144236
0.0153893
0.0163269
0.0172373
0.0181213
0.0189794
0.0198105
0.0206101
0.0213645
0.0220347
0.0225132
0.00843849
0.00792459
0.00801076
0.00856339
0.00938763
0.0103484
0.0113631
0.0123854
0.0133916
0.0143712
0.015321
0.0162408
0.0171316
0.0179948
0.0188308
0.0196392
0.0204159
0.0211483
0.021799
0.0222642
0.00843856
0.00792415
0.00800822
0.00855619
0.00937242
0.0103213
0.0113204
0.012323
0.013306
0.0142591
0.0151796
0.0160678
0.0169251
0.0177532
0.0185532
0.0193251
0.0200657
0.0207635
0.021384
0.0218288
0.0084386
0.00792231
0.00800002
0.00853543
0.00933208
0.0102544
0.0112205
0.0121848
0.013125
0.0140321
0.0149038
0.0157413
0.0165467
0.0173223
0.0180696
0.0187892
0.0194788
0.0201285
0.0207073
0.0211243
0.0084379
0.00791456
0.00797333
0.00847601
0.00922683
0.0100925
0.010994
0.0118885
0.0127557
0.0135882
0.0143847
0.0151473
0.0158785
0.0165809
0.0172565
0.0179065
0.0185291
0.0191165
0.0196417
0.0200233
0.00843
0.00787933
0.0078832
0.00830543
0.00895672
0.00971128
0.0104965
0.0112743
0.012027
0.0127483
0.0134378
0.0140973
0.0147293
0.0153365
0.0159205
0.0164826
0.0170216
0.0175315
0.0179902
0.0183279
0.0083491
0.0077013
0.00756939
0.00781984
0.00828094
0.00884208
0.00944039
0.0100424
0.0106317
0.0112015
0.0117497
0.0122766
0.0127836
0.0132719
0.0137426
0.0141962
0.0146321
0.0150458
0.0154209
0.0157024
0.00742915
0.00659943
0.0063248
0.00636001
0.00656573
0.00686613
0.00721598
0.00758796
0.00796588
0.00834049
0.00870683
0.0090624
0.00940612
0.00973766
0.010057
0.0103642
0.0106585
0.0109373
0.0111909
0.0113853
0.00167563
0.00158392
0.00152371
0.00149112
0.00148301
0.00149509
0.00152274
0.00156141
0.00160707
0.00165645
0.00170712
0.0017574
0.00180624
0.00185305
0.00189753
0.00193961
0.00197929
0.00201654
0.00205101
0.00208055
0.00167008
0.00156115
0.00147337
0.00140252
0.00134611
0.00130235
0.00127007
0.00124838
0.0012365
0.00123364
0.00123889
0.00125124
0.00126958
0.00129278
0.00131973
0.0013494
0.00138086
0.00141325
0.00144565
0.00147569
0.00761086
0.00674014
0.00619618
0.00582847
0.00558145
0.00543754
0.00538369
0.00540734
0.00549622
0.00563853
0.00582322
0.00604026
0.00628084
0.00653749
0.006804
0.00707527
0.00734689
0.00761402
0.00786648
0.00807102
0.00881494
0.0084521
0.00801622
0.00760464
0.0072968
0.0071282
0.00709885
0.00719079
0.00738046
0.00764485
0.00796394
0.00832131
0.00870397
0.00910194
0.00950771
0.00991551
0.0103203
0.0107157
0.011086
0.0113772
0.00893792
0.00872126
0.00838072
0.00802995
0.00778315
0.00769547
0.00776985
0.00798306
0.00830433
0.00870423
0.00915803
0.00964627
0.0101544
0.0106718
0.0111911
0.0117066
0.0122135
0.0127041
0.0131578
0.0135062
0.00895176
0.00876189
0.00845035
0.00813217
0.00792942
0.00790218
0.00805329
0.00835628
0.00877605
0.00927901
0.00983694
0.010428
0.011036
0.0116497
0.0122612
0.012865
0.0134556
0.0140239
0.014545
0.0149387
0.00895364
0.00876866
0.00846465
0.00815858
0.00797609
0.00797994
0.00817362
0.00852965
0.00901087
0.00958126
0.0102103
0.0108742
0.0115554
0.0122416
0.0129244
0.0135975
0.0142549
0.0148859
0.0154616
0.0158921
0.00895396
0.00876998
0.00846801
0.00816615
0.00799191
0.00800979
0.00822434
0.00860827
0.00912393
0.00973429
0.0104077
0.0111191
0.0118499
0.012587
0.0133212
0.0140457
0.0147536
0.0154326
0.0160506
0.0165101
0.00895402
0.00877028
0.0084689
0.00816848
0.00799742
0.00802124
0.00824531
0.00864288
0.00917643
0.00980876
0.0105077
0.0112478
0.0120098
0.01278
0.0135487
0.0143085
0.0150517
0.015765
0.0164135
0.0168941
0.00895404
0.00877036
0.00846916
0.00816924
0.00799937
0.00802557
0.00825373
0.0086575
0.00919965
0.00984305
0.0105555
0.0113113
0.012091
0.0128806
0.01367
0.0144514
0.0152167
0.0159517
0.0166198
0.0171142
0.00895404
0.00877038
0.00846924
0.00816947
0.00799999
0.00802702
0.00825667
0.00866281
0.00920836
0.00985629
0.0105745
0.0113371
0.0121247
0.012923
0.013722
0.0145137
0.0152896
0.016035
0.0167127
0.0172138
0.00895404
0.00877038
0.00846924
0.00816947
0.00799999
0.00802702
0.00825667
0.00866281
0.00920836
0.00985629
0.0105745
0.0113371
0.0121247
0.012923
0.013722
0.0145137
0.0152896
0.016035
0.0167127
0.0172137
0.00895404
0.00877036
0.00846916
0.00816924
0.00799937
0.00802557
0.00825373
0.0086575
0.00919965
0.00984305
0.0105555
0.0113113
0.012091
0.0128806
0.01367
0.0144514
0.0152167
0.0159517
0.0166198
0.0171141
0.00895402
0.00877028
0.0084689
0.00816848
0.00799742
0.00802124
0.00824531
0.00864288
0.00917643
0.00980876
0.0105077
0.0112478
0.0120098
0.01278
0.0135487
0.0143085
0.0150517
0.015765
0.0164134
0.0168941
0.00895396
0.00876998
0.00846801
0.00816615
0.00799191
0.00800979
0.00822434
0.00860827
0.00912393
0.00973429
0.0104077
0.0111191
0.0118499
0.012587
0.0133212
0.0140457
0.0147536
0.0154325
0.0160505
0.01651
0.00895364
0.00876866
0.00846465
0.00815858
0.00797609
0.00797994
0.00817362
0.00852965
0.00901087
0.00958126
0.0102103
0.0108742
0.0115554
0.0122416
0.0129244
0.0135975
0.0142549
0.0148858
0.0154615
0.0158921
0.00895176
0.00876189
0.00845035
0.00813217
0.00792942
0.00790218
0.00805329
0.00835628
0.00877605
0.00927901
0.00983695
0.010428
0.011036
0.0116497
0.0122612
0.012865
0.0134556
0.0140239
0.014545
0.0149387
0.00893792
0.00872126
0.00838072
0.00802995
0.00778315
0.00769547
0.00776985
0.00798306
0.00830433
0.00870423
0.00915803
0.00964627
0.0101544
0.0106718
0.011191
0.0117066
0.0122135
0.0127041
0.0131578
0.0135061
0.00881494
0.0084521
0.00801622
0.00760464
0.0072968
0.0071282
0.00709885
0.00719079
0.00738046
0.00764485
0.00796394
0.00832131
0.00870397
0.00910194
0.0095077
0.0099155
0.0103203
0.0107157
0.011086
0.0113771
0.00761086
0.00674014
0.00619618
0.00582847
0.00558145
0.00543754
0.00538369
0.00540734
0.00549622
0.00563853
0.00582322
0.00604026
0.00628084
0.00653749
0.006804
0.00707527
0.00734688
0.007614
0.00786645
0.00807098
0.00167008
0.00156115
0.00147337
0.00140252
0.00134611
0.00130235
0.00127007
0.00124838
0.0012365
0.00123364
0.00123889
0.00125124
0.00126958
0.00129278
0.00131973
0.0013494
0.00138086
0.00141325
0.00144565
0.00147568
0.00166946
0.0015582
0.00146613
0.0013886
0.00132266
0.00126621
0.0012178
0.00117644
0.00114144
0.00111229
0.00108863
0.00107021
0.00105681
0.00104823
0.00104429
0.00104475
0.00104935
0.00105774
0.00106941
0.00108296
0.00760656
0.0067136
0.00613858
0.00572829
0.00541811
0.00518408
0.00501045
0.00488594
0.00480283
0.0047562
0.00474291
0.00476085
0.00480831
0.00488354
0.00498453
0.00510881
0.00525331
0.00541399
0.00558275
0.00573378
0.00883921
0.00857775
0.00829677
0.00800979
0.00772651
0.00745755
0.0072144
0.00700823
0.00684847
0.00674178
0.00669157
0.00669816
0.00675932
0.00687085
0.0070273
0.00722244
0.00744942
0.0077
0.00795934
0.00818206
0.0089674
0.00889045
0.00877988
0.00862533
0.00842912
0.00820789
0.0079874
0.00779491
0.00765289
0.0075759
0.00757051
0.00763677
0.0077702
0.00796359
0.00820834
0.00849535
0.00881519
0.00915669
0.0094996
0.00978343
0.00898177
0.00893803
0.00887177
0.00876406
0.00861027
0.00842464
0.0082356
0.00807576
0.00797269
0.0079441
0.0079974
0.00813173
0.0083407
0.00861477
0.00894308
0.00931445
0.00971757
0.0101389
0.0105536
0.0108889
0.00898366
0.0089457
0.00888925
0.00879451
0.00865547
0.00848574
0.00831466
0.008177
0.00810256
0.00811051
0.00820856
0.0083952
0.00866268
0.00899983
0.00939407
0.00983262
0.0103026
0.0107884
0.0112612
0.011638
0.00898396
0.00894708
0.00889282
0.00880152
0.00866716
0.00850352
0.00834066
0.00821456
0.00815636
0.00818622
0.00831231
0.00853293
0.00883968
0.00922041
0.00966141
0.0101487
0.0106681
0.0112024
0.0117194
0.0121281
0.00898402
0.00894738
0.00889365
0.00880329
0.00867041
0.00850899
0.00834958
0.00822885
0.0081788
0.00822035
0.00836216
0.00860268
0.00893333
0.00934151
0.00981287
0.0103327
0.0108859
0.0114539
0.0120021
0.0124336
0.00898403
0.00894745
0.00889386
0.00880378
0.00867138
0.00851078
0.00835274
0.00823434
0.00818805
0.00823528
0.00838507
0.00863611
0.00897986
0.00940358
0.00989262
0.0104319
0.0110057
0.0115947
0.0121626
0.0126086
0.00898404
0.00894747
0.00889391
0.00880392
0.00867167
0.00851133
0.00835377
0.00823622
0.00819138
0.00824087
0.00839395
0.00864944
0.00899889
0.00942951
0.00992658
0.0104748
0.0110583
0.0116573
0.0122346
0.0126876
0.00898404
0.00894747
0.00889391
0.00880392
0.00867167
0.00851133
0.00835377
0.00823622
0.00819138
0.00824087
0.00839395
0.00864944
0.00899888
0.00942951
0.00992658
0.0104748
0.0110583
0.0116573
0.0122346
0.0126876
0.00898403
0.00894745
0.00889386
0.00880378
0.00867138
0.00851078
0.00835274
0.00823434
0.00818805
0.00823528
0.00838507
0.00863611
0.00897986
0.00940358
0.00989262
0.0104319
0.0110057
0.0115947
0.0121626
0.0126085
0.00898402
0.00894738
0.00889365
0.00880329
0.00867041
0.00850899
0.00834958
0.00822885
0.0081788
0.00822035
0.00836216
0.00860268
0.00893333
0.00934151
0.00981287
0.0103327
0.0108859
0.0114539
0.0120021
0.0124336
0.00898396
0.00894708
0.00889282
0.00880153
0.00866716
0.00850352
0.00834066
0.00821456
0.00815636
0.00818622
0.00831231
0.00853293
0.00883968
0.00922041
0.0096614
0.0101487
0.0106681
0.0112024
0.0117194
0.012128
0.00898366
0.0089457
0.00888925
0.00879451
0.00865547
0.00848574
0.00831466
0.008177
0.00810256
0.00811051
0.00820856
0.0083952
0.00866268
0.00899983
0.00939406
0.00983261
0.0103026
0.0107884
0.0112611
0.0116379
0.00898177
0.00893803
0.00887177
0.00876406
0.00861027
0.00842464
0.0082356
0.00807576
0.00797269
0.0079441
0.0079974
0.00813173
0.0083407
0.00861477
0.00894307
0.00931445
0.00971755
0.0101389
0.0105536
0.0108888
0.0089674
0.00889045
0.00877988
0.00862533
0.00842912
0.00820789
0.0079874
0.00779491
0.00765289
0.0075759
0.00757051
0.00763677
0.0077702
0.00796359
0.00820834
0.00849534
0.00881518
0.00915666
0.00949956
0.00978336
0.00883921
0.00857775
0.00829677
0.00800979
0.00772651
0.00745755
0.0072144
0.00700823
0.00684847
0.00674178
0.00669157
0.00669816
0.00675932
0.00687085
0.0070273
0.00722244
0.00744941
0.00769998
0.00795931
0.00818201
0.00760656
0.0067136
0.00613858
0.00572829
0.00541811
0.00518408
0.00501045
0.00488594
0.00480283
0.0047562
0.00474291
0.00476085
0.00480831
0.00488354
0.00498453
0.00510881
0.0052533
0.00541397
0.00558273
0.00573375
0.00166946
0.0015582
0.00146613
0.0013886
0.00132266
0.00126621
0.0012178
0.00117644
0.00114144
0.00111229
0.00108863
0.00107021
0.00105681
0.00104823
0.00104429
0.00104475
0.00104935
0.00105774
0.0010694
0.00108295
0.00166939
0.00155781
0.00146507
0.00138639
0.0013187
0.00125976
0.001208
0.00116231
0.00112183
0.00108594
0.00105415
0.00102606
0.00100141
0.000979953
0.000961532
0.00094602
0.000933327
0.000923377
0.00091609
0.000911229
0.00760289
0.00669822
0.00610446
0.00566934
0.0053291
0.00506046
0.00484793
0.00467988
0.00454776
0.00444544
0.00436848
0.00431365
0.00427856
0.00426151
0.00426125
0.00427689
0.00430769
0.00435283
0.00440977
0.00446874
0.00883499
0.00856856
0.00829172
0.0080228
0.00777013
0.00753737
0.00732551
0.00713417
0.00696264
0.00681043
0.00667765
0.00656497
0.00647365
0.0064053
0.00636163
0.00634421
0.00635403
0.0063909
0.00645065
0.00651444
0.00896254
0.00888312
0.0087908
0.0086867
0.00857122
0.008445
0.00830931
0.00816652
0.00802041
0.0078761
0.00773978
0.00761822
0.00751818
0.00744575
0.00740593
0.00740217
0.00743607
0.0075065
0.00760584
0.007704
0.00897657
0.00893026
0.00888515
0.00883728
0.0087816
0.0087133
0.00862934
0.00852954
0.00841716
0.00829871
0.00818314
0.00808068
0.00800147
0.00795439
0.00794626
0.0079813
0.00806088
0.00818246
0.00833465
0.00847629
0.00897834
0.00893753
0.00890242
0.00886925
0.00883234
0.00878557
0.00872425
0.00864671
0.00855537
0.00845684
0.00836103
0.00827973
0.00822477
0.00820648
0.00823254
0.00830739
0.00843191
0.00860214
0.00880331
0.00898467
0.00897859
0.00893875
0.0089057
0.00887607
0.0088444
0.00880453
0.00875151
0.00868333
0.00860219
0.00851477
0.00843151
0.00836501
0.00832804
0.00833176
0.00838435
0.00849034
0.00865018
0.00885878
0.00909862
0.00931132
0.00897864
0.00893898
0.00890637
0.0088776
0.00884736
0.0088096
0.00875942
0.00869484
0.00861809
0.00853604
0.00845947
0.00840153
0.00837559
0.00839337
0.00846344
0.00859043
0.00877454
0.00900991
0.00927703
0.00951197
0.00897865
0.00893903
0.00890652
0.00887797
0.00884813
0.00881102
0.0087618
0.00869854
0.00862356
0.00854389
0.00847053
0.00841695
0.00839693
0.00842255
0.00850266
0.00864203
0.00884076
0.00909252
0.00937657
0.00962544
0.00897865
0.00893904
0.00890656
0.00887807
0.00884833
0.00881141
0.00876248
0.00869966
0.00862531
0.00854651
0.00847441
0.00842262
0.00840512
0.00843415
0.00851875
0.00866376
0.00886925
0.00912869
0.00942075
0.00967626
0.00897865
0.00893904
0.00890656
0.00887807
0.00884833
0.00881141
0.00876248
0.00869966
0.00862531
0.00854651
0.00847441
0.00842262
0.00840512
0.00843415
0.00851875
0.00866376
0.00886924
0.00912869
0.00942075
0.00967625
0.00897865
0.00893903
0.00890652
0.00887797
0.00884813
0.00881102
0.0087618
0.00869854
0.00862356
0.00854389
0.00847053
0.00841695
0.00839693
0.00842255
0.00850266
0.00864203
0.00884076
0.00909251
0.00937656
0.00962542
0.00897864
0.00893898
0.00890637
0.0088776
0.00884736
0.0088096
0.00875942
0.00869484
0.00861809
0.00853604
0.00845947
0.00840153
0.00837559
0.00839337
0.00846344
0.00859043
0.00877454
0.0090099
0.00927701
0.00951195
0.00897859
0.00893875
0.0089057
0.00887607
0.0088444
0.00880453
0.00875151
0.00868333
0.00860219
0.00851477
0.00843151
0.00836501
0.00832804
0.00833176
0.00838435
0.00849034
0.00865018
0.00885877
0.0090986
0.00931129
0.00897834
0.00893753
0.00890242
0.00886925
0.00883234
0.00878557
0.00872425
0.00864671
0.00855537
0.00845684
0.00836103
0.00827973
0.00822477
0.00820648
0.00823254
0.00830739
0.0084319
0.00860213
0.00880329
0.00898464
0.00897657
0.00893026
0.00888515
0.00883728
0.0087816
0.0087133
0.00862934
0.00852954
0.00841716
0.00829871
0.00818314
0.00808068
0.00800147
0.00795439
0.00794626
0.0079813
0.00806088
0.00818245
0.00833463
0.00847626
0.00896254
0.00888312
0.0087908
0.0086867
0.00857122
0.008445
0.00830931
0.00816652
0.00802041
0.0078761
0.00773978
0.00761822
0.00751818
0.00744575
0.00740593
0.00740217
0.00743606
0.00750649
0.00760583
0.00770398
0.00883499
0.00856856
0.00829172
0.0080228
0.00777013
0.00753737
0.00732551
0.00713417
0.00696264
0.00681043
0.00667765
0.00656497
0.00647365
0.0064053
0.00636163
0.00634421
0.00635403
0.00639089
0.00645064
0.00651442
0.00760289
0.00669822
0.00610446
0.00566934
0.0053291
0.00506046
0.00484793
0.00467988
0.00454776
0.00444544
0.00436848
0.00431365
0.00427856
0.00426151
0.00426125
0.00427689
0.00430769
0.00435282
0.00440976
0.00446872
0.00166939
0.00155781
0.00146507
0.00138639
0.0013187
0.00125976
0.001208
0.00116231
0.00112183
0.00108594
0.00105415
0.00102606
0.00100141
0.000979953
0.000961532
0.00094602
0.000933327
0.000923376
0.000916089
0.000911226
0.00166938
0.00155775
0.0014649
0.00138603
0.00131801
0.00125857
0.00120611
0.00115946
0.00111774
0.00108026
0.00104647
0.00101594
0.000988314
0.000963297
0.000940655
0.000920196
0.000901763
0.000885232
0.000870511
0.000857655
0.00760211
0.00669474
0.0060959
0.00565291
0.00530172
0.00501893
0.00478897
0.00460017
0.00444396
0.00431416
0.00420632
0.00411714
0.00404418
0.00398564
0.00394017
0.00390678
0.00388466
0.0038732
0.0038714
0.00387846
0.00883345
0.00856271
0.00827932
0.00800246
0.00774154
0.00750129
0.00728338
0.0070877
0.00691313
0.0067582
0.00662132
0.006501
0.0063959
0.00630494
0.00622725
0.00616225
0.00610956
0.00606892
0.00603951
0.00601995
0.00896062
0.00887604
0.00877687
0.00866693
0.00855
0.0084296
0.00830853
0.00818881
0.00807178
0.00795834
0.00784912
0.00774467
0.00764563
0.00755282
0.00746732
0.00739055
0.00732412
0.00726955
0.00722718
0.00719489
0.00897449
0.00892255
0.00887004
0.00881651
0.00876159
0.00870494
0.00864609
0.00858453
0.0085198
0.00845161
0.00838003
0.00830561
0.00822952
0.00815359
0.00808033
0.00801283
0.00795452
0.00790848
0.00787565
0.00785117
0.00897619
0.00892957
0.00888671
0.00884753
0.00881151
0.00877766
0.00874456
0.00871051
0.00867382
0.00863304
0.00858726
0.00853639
0.00848135
0.00842414
0.00836789
0.00831663
0.00827486
0.00824659
0.00823266
0.0082245
0.00897643
0.00893069
0.00888973
0.00885384
0.00882283
0.00879586
0.00877152
0.00874798
0.00872321
0.00869536
0.00866309
0.0086259
0.00858446
0.00854079
0.00849824
0.00846132
0.00843512
0.0084241
0.0084287
0.0084368
0.00897647
0.00893088
0.0088903
0.00885516
0.0088254
0.00880036
0.00877875
0.00875881
0.00873854
0.00871604
0.00868988
0.00865946
0.00862539
0.00858972
0.00855594
0.00852885
0.00851389
0.00851574
0.00853445
0.0085551
0.00897648
0.00893092
0.00889042
0.00885545
0.008826
0.00880149
0.0087807
0.00876193
0.00874326
0.00872281
0.00869917
0.00867177
0.00864124
0.00860967
0.0085807
0.00855929
0.00855109
0.00856094
0.0085886
0.00861731
0.00897648
0.00893093
0.00889044
0.00885551
0.00882614
0.00880177
0.0087812
0.00876278
0.00874461
0.00872484
0.0087021
0.00867582
0.00864667
0.00861678
0.00858987
0.00857098
0.00856588
0.00857946
0.00861136
0.00864393
0.00897648
0.00893093
0.00889044
0.00885551
0.00882614
0.00880177
0.0087812
0.00876278
0.00874461
0.00872484
0.0087021
0.00867582
0.00864667
0.00861678
0.00858987
0.00857098
0.00856588
0.00857946
0.00861136
0.00864393
0.00897648
0.00893092
0.00889042
0.00885545
0.008826
0.00880149
0.0087807
0.00876193
0.00874326
0.00872281
0.00869917
0.00867177
0.00864124
0.00860967
0.0085807
0.00855929
0.00855109
0.00856094
0.00858859
0.00861731
0.00897647
0.00893088
0.0088903
0.00885516
0.0088254
0.00880036
0.00877875
0.00875881
0.00873854
0.00871604
0.00868988
0.00865946
0.00862539
0.00858972
0.00855594
0.00852885
0.00851388
0.00851574
0.00853445
0.0085551
0.00897643
0.00893069
0.00888973
0.00885384
0.00882283
0.00879586
0.00877152
0.00874798
0.00872321
0.00869536
0.00866309
0.0086259
0.00858446
0.00854079
0.00849824
0.00846132
0.00843512
0.0084241
0.0084287
0.0084368
0.00897619
0.00892957
0.00888671
0.00884753
0.00881151
0.00877766
0.00874456
0.00871051
0.00867382
0.00863304
0.00858726
0.00853639
0.00848135
0.00842414
0.00836789
0.00831663
0.00827486
0.00824659
0.00823266
0.0082245
0.00897449
0.00892255
0.00887004
0.00881651
0.00876159
0.00870494
0.00864609
0.00858453
0.0085198
0.00845161
0.00838003
0.00830561
0.00822952
0.00815359
0.00808033
0.00801283
0.00795452
0.00790848
0.00787565
0.00785117
0.00896062
0.00887604
0.00877687
0.00866693
0.00855
0.0084296
0.00830853
0.00818881
0.00807178
0.00795834
0.00784912
0.00774467
0.00764563
0.00755282
0.00746732
0.00739055
0.00732412
0.00726955
0.00722718
0.00719489
0.00883345
0.00856271
0.00827932
0.00800246
0.00774154
0.00750129
0.00728338
0.0070877
0.00691313
0.0067582
0.00662132
0.006501
0.0063959
0.00630494
0.00622725
0.00616225
0.00610956
0.00606892
0.0060395
0.00601994
0.00760211
0.00669474
0.0060959
0.00565291
0.00530172
0.00501893
0.00478897
0.00460017
0.00444396
0.00431416
0.00420632
0.00411714
0.00404418
0.00398564
0.00394017
0.00390678
0.00388466
0.0038732
0.00387139
0.00387845
0.00166938
0.00155775
0.0014649
0.00138603
0.00131801
0.00125857
0.00120611
0.00115946
0.00111774
0.00108026
0.00104647
0.00101594
0.000988314
0.000963297
0.000940655
0.000920196
0.000901763
0.000885232
0.000870511
0.000857654
0.00166938
0.00155774
0.00146488
0.00138597
0.00131788
0.00125834
0.00120573
0.00115887
0.00111686
0.00107899
0.00104471
0.00101356
0.000985153
0.000959186
0.000935393
0.000913552
0.000893478
0.00087501
0.000858031
0.000842649
0.00760197
0.00669408
0.00609415
0.00564931
0.00529525
0.00500838
0.00477296
0.00457715
0.00441218
0.00427173
0.00415116
0.00404702
0.00395672
0.00387828
0.00381025
0.00375152
0.00370123
0.00365887
0.00362403
0.00360021
0.0088331
0.00856119
0.00827552
0.00799502
0.00772899
0.00748211
0.00725616
0.00705112
0.00686605
0.00669961
0.00655037
0.00641693
0.00629797
0.00619235
0.00609905
0.00601718
0.00594598
0.00588485
0.00583359
0.00579691
0.00896016
0.00887403
0.00877187
0.00865738
0.00853452
0.00840727
0.00827909
0.0081527
0.00803012
0.00791276
0.00780154
0.00769704
0.00759953
0.00750913
0.0074258
0.00734947
0.00728
0.00721728
0.00716165
0.00711832
0.00897398
0.00892031
0.00886443
0.00880575
0.00874427
0.00868041
0.00861485
0.00854837
0.00848172
0.00841556
0.00835041
0.00828669
0.00822469
0.00816461
0.00810664
0.00805095
0.00799771
0.00794715
0.00789984
0.00786029
0.00897567
0.00892723
0.00888083
0.0088362
0.00879316
0.00875162
0.00871151
0.00867276
0.00863526
0.00859887
0.00856336
0.00852848
0.00849399
0.00845963
0.00842522
0.00839073
0.00835622
0.0083219
0.0082881
0.00825774
0.0089759
0.00892832
0.00888374
0.00884227
0.00880399
0.008769
0.00873728
0.00870873
0.0086831
0.00866002
0.00863901
0.00861949
0.00860084
0.00858249
0.00856392
0.00854479
0.00852499
0.0085045
0.00848325
0.00846233
0.00897594
0.0089285
0.00888428
0.00884349
0.00880636
0.00877312
0.00874388
0.00871864
0.00869722
0.00867929
0.00866434
0.00865175
0.00864082
0.00863082
0.0086211
0.00861116
0.00860074
0.00858967
0.00857749
0.00856376
0.00897594
0.00892853
0.00888439
0.00884374
0.00880688
0.00877409
0.00874554
0.0087213
0.00870126
0.00868514
0.00867249
0.00866271
0.00865511
0.00864895
0.00864355
0.00863836
0.00863306
0.00862741
0.00862067
0.00861142
0.00897594
0.00892854
0.00888441
0.00884379
0.008807
0.00877431
0.00874594
0.00872198
0.00870233
0.00868677
0.00867486
0.00866604
0.00865964
0.00865493
0.00865123
0.00864799
0.00864488
0.00864161
0.00863734
0.00863017
0.00897594
0.00892854
0.00888441
0.00884379
0.008807
0.00877431
0.00874594
0.00872198
0.00870233
0.00868677
0.00867486
0.00866604
0.00865964
0.00865493
0.00865123
0.00864799
0.00864488
0.00864161
0.00863734
0.00863017
0.00897594
0.00892853
0.00888439
0.00884374
0.00880688
0.00877409
0.00874554
0.0087213
0.00870126
0.00868514
0.00867249
0.00866271
0.00865511
0.00864895
0.00864355
0.00863836
0.00863306
0.00862741
0.00862067
0.00861142
0.00897594
0.0089285
0.00888428
0.00884349
0.00880636
0.00877312
0.00874388
0.00871864
0.00869722
0.00867929
0.00866434
0.00865175
0.00864082
0.00863082
0.0086211
0.00861116
0.00860074
0.00858967
0.00857749
0.00856376
0.0089759
0.00892832
0.00888374
0.00884227
0.00880399
0.008769
0.00873728
0.00870873
0.0086831
0.00866002
0.00863901
0.00861949
0.00860084
0.00858249
0.00856392
0.00854479
0.00852498
0.0085045
0.00848325
0.00846232
0.00897567
0.00892723
0.00888083
0.0088362
0.00879316
0.00875162
0.00871151
0.00867276
0.00863526
0.00859887
0.00856336
0.00852848
0.00849399
0.00845963
0.00842522
0.00839072
0.00835622
0.00832189
0.00828809
0.00825774
0.00897398
0.00892031
0.00886443
0.00880575
0.00874427
0.00868041
0.00861485
0.00854837
0.00848172
0.00841556
0.00835041
0.00828669
0.00822469
0.00816461
0.00810664
0.00805095
0.00799771
0.00794715
0.00789983
0.00786028
0.00896016
0.00887403
0.00877187
0.00865738
0.00853452
0.00840727
0.00827909
0.0081527
0.00803012
0.00791276
0.00780154
0.00769704
0.00759953
0.00750913
0.0074258
0.00734947
0.00728
0.00721727
0.00716165
0.00711831
0.0088331
0.00856119
0.00827552
0.00799502
0.00772899
0.00748211
0.00725616
0.00705112
0.00686605
0.00669961
0.00655037
0.00641693
0.00629797
0.00619235
0.00609905
0.00601718
0.00594598
0.00588485
0.00583359
0.0057969
0.00760197
0.00669408
0.00609415
0.00564931
0.00529525