/*--------------------------------*- C++ -*----------------------------------*\
  =========                 |
  \\      /  F ield         | OpenFOAM: The Open Source CFD Toolbox
   \\    /   O peration     | Website:  https://openfoam.org
    \\  /    A nd           | Version:  9
     \\/     M anipulation  |
\*---------------------------------------------------------------------------*/
FoamFile
{
    format      ascii;
    class       surfaceScalarField;
    location    "300";
    object      phi;
}
// * * * * * * * * * * * * * * * * * * * * * * * * * * * * * * * * * * * * * //

dimensions      [0 3 -1 0 0 0 0];

internalField   nonuniform List<scalar> 
22800
(
0.00251454
-1.57098e-05
1.16529e-06
0.0025236
-9.41785e-06
3.62102e-07
0.00252295
3.76739e-07
2.75599e-07
0.00251313
9.58335e-06
2.37241e-07
0.00249746
1.58908e-05
-2.23046e-07
0.00247949
1.86805e-05
-7.1125e-07
0.00246159
1.89239e-05
-1.02559e-06
0.00244496
1.77976e-05
-1.16896e-06
0.00243011
1.60433e-05
-1.18959e-06
0.00241716
1.40759e-05
-1.12904e-06
0.00240604
1.21485e-05
-1.02304e-06
0.00239653
1.04068e-05
-9.00913e-07
0.0023884
8.91341e-06
-7.82268e-07
0.0023814
7.67808e-06
-6.77429e-07
0.0023753
6.68862e-06
-5.9017e-07
0.00236989
5.93097e-06
-5.19582e-07
0.00236493
5.4263e-06
-4.65775e-07
0.00236016
5.17368e-06
-4.07821e-07
0.00235505
5.46916e-06
-3.57822e-07
5.82682e-06
-1.61269e-07
0.00249497
-1.23346e-05
1.65973e-06
0.00248846
-4.20548e-06
1.29066e-06
0.00248625
1.32414e-06
1.26116e-06
0.0024886
5.44665e-06
1.79343e-06
0.00249303
9.08392e-06
2.37286e-06
0.00249721
1.19163e-05
2.58903e-06
0.00249992
1.37628e-05
2.45141e-06
0.00250088
1.47264e-05
2.10255e-06
0.00250027
1.4985e-05
1.66871e-06
0.0024984
1.4717e-05
1.23604e-06
0.0024956
1.4095e-05
8.53654e-07
0.00249219
1.32701e-05
5.41855e-07
0.00248844
1.23577e-05
3.02445e-07
0.00248456
1.14375e-05
1.2763e-07
0.00248067
1.05652e-05
6.9523e-09
0.0024769
9.77655e-06
-7.37025e-08
0.00247334
9.11436e-06
-1.28403e-07
0.00247009
8.5856e-06
-1.55399e-07
0.00246734
8.37308e-06
-1.62259e-07
7.98042e-06
-1.09185e-07
0.00248936
-2.35794e-06
6.64854e-07
0.00248672
-2.12384e-06
5.53318e-07
0.0024874
1.25448e-07
5.24243e-07
0.00248949
2.72154e-06
6.28636e-07
0.00249227
5.51431e-06
7.91256e-07
0.00249522
8.08747e-06
8.83066e-07
0.00249797
1.01175e-05
8.91301e-07
0.00250031
1.15507e-05
8.43018e-07
0.00250209
1.24486e-05
7.56315e-07
0.00250326
1.28945e-05
6.47638e-07
0.00250384
1.29802e-05
5.32988e-07
0.00250389
1.27996e-05
4.23474e-07
0.00250349
1.24366e-05
3.2486e-07
0.00250272
1.196e-05
2.39319e-07
0.0025017
1.1425e-05
1.6705e-07
0.00250049
1.08732e-05
1.0671e-07
0.00249921
1.03428e-05
5.65688e-08
0.00249793
9.84451e-06
1.88487e-08
0.00249686
9.44613e-06
-6.30675e-09
8.79037e-06
-2.37501e-08
0.00249754
-6.6028e-07
7.58488e-07
0.00249538
-7.25829e-07
7.62945e-07
0.00249394
7.50467e-07
8.18149e-07
0.00249327
2.48757e-06
9.00577e-07
0.00249358
4.24619e-06
9.62948e-07
0.00249474
5.95099e-06
9.75978e-07
0.00249646
7.45486e-06
9.40019e-07
0.00249846
8.68192e-06
8.6866e-07
0.00250052
9.62072e-06
7.74307e-07
0.00250246
1.02816e-05
6.68889e-07
0.00250419
1.06892e-05
5.62668e-07
0.00250564
1.08807e-05
4.62201e-07
0.00250681
1.08977e-05
3.70759e-07
0.0025077
1.07804e-05
2.89571e-07
0.00250834
1.05649e-05
2.1869e-07
0.00250878
1.02813e-05
1.5745e-07
0.00250906
9.95497e-06
1.05137e-07
0.00250925
9.59139e-06
6.17772e-08
0.00250946
9.20941e-06
3.08193e-08
8.58535e-06
-2.14702e-09
0.0024988
-9.41632e-08
6.37543e-07
0.00249738
1.65216e-07
5.23429e-07
0.00249651
1.1261e-06
4.97953e-07
0.00249618
2.30027e-06
5.19177e-07
0.00249637
3.5031e-06
5.46377e-07
0.00249706
4.6955e-06
5.6797e-07
0.00249815
5.79593e-06
5.72503e-07
0.00249953
6.74292e-06
5.57546e-07
0.00250111
7.51729e-06
5.25695e-07
0.00250279
8.11861e-06
4.81332e-07
0.00250449
8.5552e-06
4.29384e-07
0.00250616
8.84274e-06
3.74029e-07
0.00250773
9.00102e-06
3.18254e-07
0.0025092
9.05047e-06
2.64053e-07
0.00251054
9.0103e-06
2.12702e-07
0.00251176
8.89657e-06
1.64927e-07
0.00251287
8.72183e-06
1.21502e-07
0.0025139
8.48557e-06
8.25773e-08
0.00251486
8.18879e-06
5.47646e-08
7.70627e-06
1.95728e-08
0.00249926
9.76027e-08
5.53101e-07
0.00249854
4.41204e-07
4.35791e-07
0.00249813
1.10681e-06
4.33914e-07
0.00249801
1.94188e-06
4.77548e-07
0.00249819
2.81197e-06
5.06827e-07
0.0024987
3.66893e-06
5.19327e-07
0.00249951
4.46761e-06
5.15687e-07
0.00250059
5.17081e-06
4.97864e-07
0.00250187
5.76388e-06
4.68895e-07
0.00250331
6.24517e-06
4.31777e-07
0.00250486
6.61854e-06
3.89477e-07
0.00250647
6.89186e-06
3.44536e-07
0.00250809
7.07541e-06
2.98806e-07
0.00250971
7.17989e-06
2.53576e-07
0.0025113
7.21512e-06
2.09771e-07
0.00251284
7.18872e-06
1.68019e-07
0.00251432
7.10556e-06
1.29237e-07
0.00251575
6.96264e-06
9.33447e-08
0.00251712
6.75649e-06
6.85382e-08
6.42453e-06
3.47798e-08
0.00249946
1.34694e-07
4.99541e-07
0.00249907
4.55705e-07
3.74386e-07
0.00249889
9.28939e-07
3.65382e-07
0.00249892
1.51044e-06
3.99453e-07
0.00249919
2.12171e-06
4.17549e-07
0.00249971
2.72342e-06
4.23434e-07
0.00250047
3.28809e-06
4.20934e-07
0.00250144
3.79196e-06
4.10137e-07
0.00250259
4.22311e-06
3.91682e-07
0.00250389
4.5792e-06
3.66851e-07
0.00250531
4.86264e-06
3.37206e-07
0.00250682
5.07854e-06
3.04274e-07
0.00250839
5.23345e-06
2.69334e-07
0.00251
5.33394e-06
2.33417e-07
0.00251163
5.38554e-06
1.97402e-07
0.00251327
5.392e-06
1.61992e-07
0.00251489
5.35487e-06
1.28284e-07
0.00251649
5.27123e-06
9.62248e-08
0.00251803
5.13783e-06
7.49063e-08
4.92715e-06
4.40431e-08
0.00249956
1.09155e-07
4.63783e-07
0.00249934
3.48418e-07
3.33255e-07
0.00249929
6.57554e-07
3.21591e-07
0.00249941
1.02661e-06
3.55176e-07
0.00249975
1.41675e-06
3.73367e-07
0.00250029
1.80231e-06
3.79527e-07
0.00250103
2.16614e-06
3.78338e-07
0.00250196
2.49362e-06
3.70022e-07
0.00250305
2.77627e-06
3.55116e-07
0.00250428
3.01178e-06
3.34733e-07
0.00250563
3.20136e-06
3.10071e-07
0.00250708
3.34817e-06
2.82259e-07
0.00250861
3.4563e-06
2.52281e-07
0.00251019
3.52985e-06
2.20976e-07
0.00251182
3.57213e-06
1.8911e-07
0.00251346
3.58516e-06
1.57327e-07
0.00251512
3.56947e-06
1.2673e-07
0.00251677
3.5232e-06
9.72263e-08
0.00251839
3.44448e-06
7.82417e-08
3.32303e-06
4.94833e-08
0.00249961
5.90578e-08
4.41807e-07
0.00249946
1.85183e-07
3.08572e-07
0.00249949
3.38644e-07
2.95355e-07
0.00249967
5.18313e-07
3.27924e-07
0.00250003
7.08668e-07
3.45108e-07
0.00250058
8.97356e-07
3.5033e-07
0.00250133
1.07601e-06
3.49149e-07
0.00250224
1.23768e-06
3.42072e-07
0.00250331
1.37796e-06
3.29419e-07
0.00250451
1.4954e-06
3.12e-07
0.00250583
1.59041e-06
2.90688e-07
0.00250725
1.66445e-06
2.66319e-07
0.00250875
1.7195e-06
2.39677e-07
0.00251031
1.75759e-06
2.11473e-07
0.00251192
1.78034e-06
1.82408e-07
0.00251356
1.78872e-06
1.53098e-07
0.00251522
1.78294e-06
1.24642e-07
0.00251689
1.7622e-06
9.69395e-08
0.00251853
1.72575e-06
7.95446e-08
1.67062e-06
5.21921e-08
0.00249963
-2.85542e-13
4.31365e-07
0.00249952
-7.12669e-13
2.96996e-07
0.00249957
-1.16498e-12
2.83028e-07
0.00249977
-1.57111e-12
3.15097e-07
0.00250015
-1.85644e-12
3.32005e-07
0.00250071
-1.96345e-12
3.37117e-07
0.00250145
-1.85679e-12
3.36209e-07
0.00250236
-1.52692e-12
3.29833e-07
0.00250342
-9.815e-13
3.18205e-07
0.00250461
-2.32539e-13
3.02038e-07
0.00250592
7.08893e-13
2.82117e-07
0.00250733
1.82999e-12
2.59184e-07
0.00250881
3.10964e-12
2.3395e-07
0.00251036
4.51688e-12
2.07081e-07
0.00251196
6.0182e-12
1.79246e-07
0.0025136
7.58774e-12
1.51044e-07
0.00251526
9.21424e-12
1.23569e-07
0.00251693
1.08921e-11
9.6709e-08
0.00251857
1.26258e-11
8.00492e-08
1.42153e-11
5.3322e-08
0.00249963
-5.90584e-08
4.31366e-07
0.00249952
-1.85184e-07
2.96996e-07
0.00249957
-3.38646e-07
2.83028e-07
0.00249977
-5.18316e-07
3.15097e-07
0.00250015
-7.08672e-07
3.32005e-07
0.00250071
-8.9736e-07
3.37117e-07
0.00250145
-1.07602e-06
3.36209e-07
0.00250236
-1.23768e-06
3.29833e-07
0.00250342
-1.37796e-06
3.18205e-07
0.00250461
-1.49541e-06
3.02038e-07
0.00250592
-1.59041e-06
2.82117e-07
0.00250733
-1.66445e-06
2.59184e-07
0.00250881
-1.7195e-06
2.3395e-07
0.00251036
-1.75758e-06
2.07081e-07
0.00251196
-1.78033e-06
1.79246e-07
0.0025136
-1.7887e-06
1.51044e-07
0.00251526
-1.78293e-06
1.23569e-07
0.00251693
-1.76218e-06
9.6709e-08
0.00251857
-1.72573e-06
8.00492e-08
-1.67059e-06
5.33221e-08
0.00249961
-1.09155e-07
4.41807e-07
0.00249946
-3.48419e-07
3.08572e-07
0.00249949
-6.57557e-07
2.95355e-07
0.00249967
-1.02662e-06
3.27924e-07
0.00250003
-1.41675e-06
3.45108e-07
0.00250058
-1.80231e-06
3.5033e-07
0.00250133
-2.16614e-06
3.49149e-07
0.00250224
-2.49362e-06
3.42072e-07
0.00250331
-2.77627e-06
3.29419e-07
0.00250451
-3.01178e-06
3.12e-07
0.00250583
-3.20136e-06
2.90688e-07
0.00250725
-3.34816e-06
2.66319e-07
0.00250875
-3.4563e-06
2.39677e-07
0.00251031
-3.52984e-06
2.11473e-07
0.00251192
-3.57212e-06
1.82408e-07
0.00251356
-3.58514e-06
1.53098e-07
0.00251522
-3.56945e-06
1.24642e-07
0.00251689
-3.52318e-06
9.69395e-08
0.00251853
-3.44446e-06
7.95447e-08
-3.323e-06
5.21922e-08
0.00249956
-1.34694e-07
4.63783e-07
0.00249934
-4.55706e-07
3.33255e-07
0.00249929
-9.28942e-07
3.21591e-07
0.00249941
-1.51044e-06
3.55176e-07
0.00249975
-2.12171e-06
3.73366e-07
0.00250029
-2.72343e-06
3.79527e-07
0.00250103
-3.28809e-06
3.78338e-07
0.00250196
-3.79196e-06
3.70022e-07
0.00250305
-4.22311e-06
3.55116e-07
0.00250428
-4.57921e-06
3.34733e-07
0.00250563
-4.86264e-06
3.10071e-07
0.00250708
-5.07853e-06
2.82259e-07
0.00250861
-5.23345e-06
2.52281e-07
0.00251019
-5.33393e-06
2.20976e-07
0.00251182
-5.38553e-06
1.8911e-07
0.00251346
-5.39198e-06
1.57327e-07
0.00251512
-5.35485e-06
1.2673e-07
0.00251677
-5.27121e-06
9.72264e-08
0.00251839
-5.13781e-06
7.82418e-08
-4.92712e-06
4.94834e-08
0.00249946
-9.76032e-08
4.99541e-07
0.00249907
-4.41205e-07
3.74386e-07
0.00249889
-1.10681e-06
3.65382e-07
0.00249892
-1.94188e-06
3.99453e-07
0.00249919
-2.81198e-06
4.17549e-07
0.00249971
-3.66893e-06
4.23434e-07
0.00250047
-4.46762e-06
4.20934e-07
0.00250144
-5.17082e-06
4.10137e-07
0.00250259
-5.76388e-06
3.91682e-07
0.00250389
-6.24517e-06
3.6685e-07
0.00250531
-6.61854e-06
3.37206e-07
0.00250682
-6.89186e-06
3.04274e-07
0.00250839
-7.0754e-06
2.69334e-07
0.00251
-7.17989e-06
2.33417e-07
0.00251163
-7.21511e-06
1.97403e-07
0.00251327
-7.18871e-06
1.61992e-07
0.00251489
-7.10554e-06
1.28284e-07
0.00251649
-6.96262e-06
9.62249e-08
0.00251803
-6.75647e-06
7.49064e-08
-6.4245e-06
4.40433e-08
0.00249926
9.41628e-08
5.53101e-07
0.00249854
-1.65217e-07
4.35791e-07
0.00249813
-1.1261e-06
4.33914e-07
0.00249801
-2.30028e-06
4.77548e-07
0.00249819
-3.5031e-06
5.06827e-07
0.0024987
-4.69551e-06
5.19327e-07
0.00249951
-5.79593e-06
5.15686e-07
0.00250059
-6.74292e-06
4.97864e-07
0.00250187
-7.51729e-06
4.68894e-07
0.00250331
-8.11861e-06
4.31777e-07
0.00250486
-8.5552e-06
3.89477e-07
0.00250647
-8.84274e-06
3.44536e-07
0.00250809
-9.00102e-06
2.98806e-07
0.00250971
-9.05047e-06
2.53576e-07
0.0025113
-9.0103e-06
2.09771e-07
0.00251284
-8.89656e-06
1.68019e-07
0.00251432
-8.72181e-06
1.29238e-07
0.00251575
-8.48555e-06
9.3345e-08
0.00251712
-8.18876e-06
6.85384e-08
-7.70624e-06
3.478e-08
0.0024988
6.60279e-07
6.37543e-07
0.00249738
7.25828e-07
5.2343e-07
0.00249651
-7.50468e-07
4.97953e-07
0.00249618
-2.48758e-06
5.19177e-07
0.00249637
-4.24619e-06
5.46377e-07
0.00249706
-5.95099e-06
5.6797e-07
0.00249815
-7.45486e-06
5.72503e-07
0.00249953
-8.68192e-06
5.57545e-07
0.00250111
-9.62072e-06
5.25695e-07
0.00250279
-1.02816e-05
4.81331e-07
0.00250449
-1.06892e-05
4.29384e-07
0.00250616
-1.08807e-05
3.74029e-07
0.00250773
-1.08977e-05
3.18254e-07
0.0025092
-1.07804e-05
2.64053e-07
0.00251054
-1.05649e-05
2.12702e-07
0.00251176
-1.02813e-05
1.64927e-07
0.00251287
-9.95495e-06
1.21502e-07
0.0025139
-9.59137e-06
8.25778e-08
0.00251486
-9.20938e-06
5.4765e-08
-8.58532e-06
1.9573e-08
0.00249754
2.35794e-06
7.58488e-07
0.00249538
2.12384e-06
7.62945e-07
0.00249394
-1.25449e-07
8.18149e-07
0.00249327
-2.72154e-06
9.00577e-07
0.00249358
-5.51431e-06
9.62948e-07
0.00249474
-8.08747e-06
9.75978e-07
0.00249646
-1.01175e-05
9.40018e-07
0.00249846
-1.15507e-05
8.68659e-07
0.00250052
-1.24486e-05
7.74307e-07
0.00250246
-1.28945e-05
6.68889e-07
0.00250419
-1.29802e-05
5.62668e-07
0.00250564
-1.27996e-05
4.62201e-07
0.00250681
-1.24366e-05
3.70759e-07
0.0025077
-1.196e-05
2.89571e-07
0.00250834
-1.14249e-05
2.18691e-07
0.00250878
-1.08732e-05
1.57451e-07
0.00250906
-1.03428e-05
1.05138e-07
0.00250925
-9.8445e-06
6.17782e-08
0.00250946
-9.4461e-06
3.082e-08
-8.79033e-06
-2.14673e-09
0.00248936
1.23346e-05
6.64854e-07
0.00248672
4.20548e-06
5.53318e-07
0.0024874
-1.32414e-06
5.24243e-07
0.00248949
-5.44665e-06
6.28636e-07
0.00249227
-9.08392e-06
7.91255e-07
0.00249522
-1.19163e-05
8.83066e-07
0.00249797
-1.37628e-05
8.91301e-07
0.00250031
-1.47264e-05
8.43018e-07
0.00250209
-1.4985e-05
7.56315e-07
0.00250326
-1.4717e-05
6.47638e-07
0.00250384
-1.4095e-05
5.32988e-07
0.00250389
-1.32701e-05
4.23474e-07
0.00250349
-1.23577e-05
3.24861e-07
0.00250272
-1.14375e-05
2.3932e-07
0.0025017
-1.05652e-05
1.67051e-07
0.00250049
-9.77655e-06
1.06712e-07
0.00249921
-9.11436e-06
5.65709e-08
0.00249793
-8.58559e-06
1.88506e-08
0.00249686
-8.37305e-06
-6.30555e-09
-7.98037e-06
-2.37497e-08
0.00249497
1.57098e-05
1.65973e-06
0.00248846
9.41785e-06
1.29066e-06
0.00248625
-3.7674e-07
1.26116e-06
0.0024886
-9.58335e-06
1.79343e-06
0.00249303
-1.58908e-05
2.37286e-06
0.00249721
-1.86805e-05
2.58903e-06
0.00249992
-1.89239e-05
2.45141e-06
0.00250088
-1.77976e-05
2.10254e-06
0.00250027
-1.60433e-05
1.66871e-06
0.0024984
-1.40759e-05
1.23604e-06
0.0024956
-1.21485e-05
8.53654e-07
0.00249219
-1.04068e-05
5.41855e-07
0.00248844
-8.91341e-06
3.02446e-07
0.00248456
-7.67808e-06
1.27631e-07
0.00248067
-6.68863e-06
6.95477e-09
0.0024769
-5.93097e-06
-7.36989e-08
0.00247334
-5.42631e-06
-1.28398e-07
0.00247009
-5.17367e-06
-1.55394e-07
0.00246734
-5.46911e-06
-1.62255e-07
-5.82673e-06
-1.09182e-07
0.00251454
1.16529e-06
0.0025236
3.62102e-07
0.00252295
2.75599e-07
0.00251313
2.3724e-07
0.00249746
-2.23047e-07
0.00247949
-7.11251e-07
0.00246159
-1.02559e-06
0.00244496
-1.16896e-06
0.00243011
-1.18959e-06
0.00241716
-1.12904e-06
0.00240604
-1.02304e-06
0.00239653
-9.00914e-07
0.0023884
-7.82268e-07
0.0023814
-6.7743e-07
0.0023753
-5.90171e-07
0.00236989
-5.19582e-07
0.00236493
-4.65775e-07
0.00236016
-4.07821e-07
0.00235505
-3.57823e-07
-1.6127e-07
0.00251907
-1.81969e-05
2.93926e-07
0.00253091
-1.25263e-05
1.04817e-06
0.0025338
-3.90476e-06
1.29108e-06
0.00252885
3.91338e-06
1.27513e-06
0.00251787
9.67748e-06
1.07917e-06
0.00250358
1.27784e-05
8.01346e-07
0.00248808
1.39332e-05
5.3361e-07
0.00247257
1.4038e-05
3.0812e-07
0.00245767
1.35727e-05
1.32656e-07
0.00244378
1.27557e-05
1.01607e-08
0.00243109
1.17344e-05
-6.49871e-08
0.00241966
1.06296e-05
-1.06333e-07
0.00240948
9.53091e-06
-1.2884e-07
0.00240044
8.50036e-06
-1.44533e-07
0.00239243
7.58462e-06
-1.62067e-07
0.00238528
6.8165e-06
-1.84653e-07
0.00237877
6.25533e-06
-2.12208e-07
0.00237268
5.91722e-06
-2.29519e-07
0.00236638
6.16325e-06
-2.25743e-07
6.37303e-06
-1.44468e-07
0.00249565
-1.28463e-05
6.54589e-07
0.00248975
-6.14897e-06
8.12946e-07
0.00248706
-8.88035e-07
9.35644e-07
0.00248882
2.8058e-06
1.14008e-06
0.00249371
5.73732e-06
1.42312e-06
0.00249927
8.1003e-06
1.71581e-06
0.00250379
9.91316e-06
1.95145e-06
0.00250661
1.12315e-05
2.08771e-06
0.00250765
1.20948e-05
2.10861e-06
0.00250708
1.25322e-05
2.02277e-06
0.00250522
1.25973e-05
1.85388e-06
0.00250239
1.23683e-05
1.6302e-06
0.00249892
1.19299e-05
1.37829e-06
0.00249506
1.13609e-05
1.11988e-06
0.00249106
1.07308e-05
8.69805e-07
0.00248706
1.00979e-05
6.39285e-07
0.00248322
9.53099e-06
4.34795e-07
0.00247968
9.04099e-06
2.60496e-07
0.00247672
8.84508e-06
1.19129e-07
8.35879e-06
-5.98902e-09
0.00248995
-2.45111e-06
3.19618e-07
0.00248697
-3.00154e-06
3.86363e-07
0.00248757
-1.43021e-06
4.70564e-07
0.00248991
5.37092e-07
5.55155e-07
0.002493
2.79437e-06
6.36977e-07
0.00249623
5.04946e-06
7.07086e-07
0.00249925
7.02376e-06
7.61844e-07
0.00250189
8.63379e-06
8.05381e-07
0.00250403
9.87794e-06
8.32585e-07
0.00250561
1.07645e-05
8.3553e-07
0.00250661
1.13171e-05
8.1123e-07
0.00250706
1.1579e-05
7.6109e-07
0.00250702
1.16048e-05
6.89286e-07
0.00250657
1.14508e-05
6.01742e-07
0.00250579
1.11708e-05
5.04632e-07
0.00250478
1.08125e-05
4.03747e-07
0.00250364
1.04254e-05
3.03736e-07
0.00250247
1.00224e-05
2.07157e-07
0.00250149
9.6961e-06
1.20054e-07
9.01341e-06
1.89038e-08
0.00249875
-8.53548e-07
4.07928e-07
0.00249721
-1.27893e-06
5.82415e-07
0.00249602
-1.03699e-07
6.78043e-07
0.00249531
1.40205e-06
7.54554e-07
0.00249534
2.88618e-06
8.3277e-07
0.00249615
4.3157e-06
8.99913e-07
0.00249754
5.63026e-06
9.43112e-07
0.00249929
6.79559e-06
9.60767e-07
0.00250119
7.79822e-06
9.52132e-07
0.00250309
8.62057e-06
9.17812e-07
0.00250486
9.24993e-06
8.61608e-07
0.00250642
9.68874e-06
7.88476e-07
0.00250774
9.95264e-06
7.03234e-07
0.0025088
1.00649e-05
6.10404e-07
0.00250963
1.00524e-05
5.13912e-07
0.00251024
9.94147e-06
4.16784e-07
0.00251069
9.75873e-06
3.21339e-07
0.00251104
9.50883e-06
2.27601e-07
0.0025114
9.22444e-06
1.39912e-07
8.62727e-06
4.3706e-08
0.00249961
-2.11129e-07
3.88646e-07
0.00249851
-1.92645e-07
5.36722e-07
0.00249776
5.36073e-07
6.03884e-07
0.00249752
1.51738e-06
6.46329e-07
0.00249774
2.53854e-06
6.77148e-07
0.00249835
3.57233e-06
6.98879e-07
0.00249928
4.56301e-06
7.10928e-07
0.00250046
5.4608e-06
7.13734e-07
0.00250183
6.24691e-06
7.06622e-07
0.00250333
6.91328e-06
6.87872e-07
0.00250489
7.45489e-06
6.5677e-07
0.00250647
7.87243e-06
6.13885e-07
0.00250801
8.17235e-06
5.60648e-07
0.00250947
8.36467e-06
4.99083e-07
0.00251085
8.46129e-06
4.31455e-07
0.00251212
8.47361e-06
3.59763e-07
0.0025133
8.41229e-06
2.85933e-07
0.00251441
8.27501e-06
2.09846e-07
0.00251548
8.06887e-06
1.36131e-07
7.63336e-06
6.35559e-08
0.00249996
1.66146e-08
3.68404e-07
0.00249949
1.89648e-07
5.18429e-07
0.00249918
6.94867e-07
5.87843e-07
0.00249914
1.40485e-06
6.30978e-07
0.00249935
2.17304e-06
6.64174e-07
0.00249981
2.94217e-06
6.88353e-07
0.00250051
3.67272e-06
6.99493e-07
0.00250144
4.33451e-06
6.9654e-07
0.00250256
4.91649e-06
6.8084e-07
0.00250384
5.41649e-06
6.53753e-07
0.00250523
5.83409e-06
6.16739e-07
0.0025067
6.17076e-06
5.71437e-07
0.00250822
6.43023e-06
5.19404e-07
0.00250976
6.61736e-06
4.62072e-07
0.0025113
6.7373e-06
4.008e-07
0.00251281
6.79416e-06
3.36666e-07
0.00251429
6.79071e-06
2.70867e-07
0.00251573
6.72227e-06
2.0281e-07
0.00251714
6.58736e-06
1.36454e-07
6.30178e-06
8.09051e-08
0.00250009
7.92485e-08
3.4752e-07
0.00249988
2.87152e-07
4.91248e-07
0.00249973
6.54463e-07
5.53734e-07
0.00249979
1.15019e-06
5.87742e-07
0.00250008
1.6933e-06
6.10837e-07
0.00250058
2.2393e-06
6.25283e-07
0.00250128
2.76196e-06
6.29571e-07
0.00250216
3.23974e-06
6.23472e-07
0.0025032
3.66142e-06
6.07909e-07
0.00250438
4.02416e-06
5.83719e-07
0.00250567
4.32856e-06
5.51738e-07
0.00250705
4.57703e-06
5.12973e-07
0.00250851
4.77311e-06
4.68462e-07
0.00251002
4.92053e-06
4.19201e-07
0.00251157
5.0224e-06
3.66184e-07
0.00251314
5.08049e-06
3.10206e-07
0.00251471
5.09498e-06
2.52287e-07
0.00251627
5.06182e-06
1.91861e-07
0.00251782
4.97806e-06
1.3253e-07
4.80332e-06
9.06033e-08
0.00250014
7.45341e-08
3.30504e-07
0.00250005
2.44166e-07
4.68421e-07
0.00250001
4.88404e-07
5.26984e-07
0.00250015
8.03863e-07
5.57496e-07
0.00250049
1.15223e-06
5.78097e-07
0.00250101
1.50508e-06
5.9127e-07
0.00250171
1.84463e-06
5.95477e-07
0.00250257
2.15667e-06
5.89912e-07
0.00250358
2.43278e-06
5.75057e-07
0.00250472
2.67036e-06
5.5184e-07
0.00250597
2.86985e-06
5.21297e-07
0.00250731
3.03317e-06
4.84537e-07
0.00250873
3.163e-06
4.42632e-07
0.00251021
3.26203e-06
3.96538e-07
0.00251174
3.33236e-06
3.47144e-07
0.00251331
3.375e-06
2.95126e-07
0.0025149
3.38975e-06
2.41385e-07
0.0025165
3.3741e-06
1.85353e-07
0.0025181
3.32598e-06
1.30267e-07
3.22788e-06
9.63581e-08
0.00250016
4.24043e-08
3.18821e-07
0.00250012
1.35244e-07
4.52453e-07
0.00250014
2.57903e-07
5.08245e-07
0.00250032
4.11896e-07
5.36225e-07
0.00250068
5.82271e-07
5.54518e-07
0.00250122
7.55485e-07
5.65756e-07
0.00250192
9.22694e-07
5.68736e-07
0.00250278
1.07701e-06
5.62848e-07
0.00250378
1.21402e-06
5.48508e-07
0.0025049
1.33208e-06
5.26517e-07
0.00250613
1.43125e-06
4.97762e-07
0.00250746
1.51245e-06
4.63186e-07
0.00250886
1.57705e-06
4.23733e-07
0.00251032
1.62648e-06
3.80274e-07
0.00251184
1.66187e-06
3.33634e-07
0.0025134
1.68376e-06
2.84445e-07
0.00251499
1.69206e-06
2.33574e-07
0.0025166
1.68568e-06
1.80484e-07
0.00251821
1.66367e-06
1.28223e-07
1.61981e-06
9.89452e-08
0.00250016
-2.11475e-13
3.12932e-07
0.00250015
-5.37841e-13
4.44342e-07
0.00250019
-9.50209e-13
4.98732e-07
0.00250039
-1.3778e-12
5.25524e-07
0.00250076
-1.73573e-12
5.42848e-07
0.0025013
-1.94491e-12
5.53437e-07
0.00250201
-1.94694e-12
5.56202e-07
0.00250286
-1.71765e-12
5.50527e-07
0.00250386
-1.25859e-12
5.36696e-07
0.00250498
-5.80656e-13
5.15412e-07
0.0025062
3.04903e-13
4.87507e-07
0.00250752
1.38704e-12
4.53889e-07
0.00250892
2.64803e-12
4.15477e-07
0.00251038
4.059e-12
3.73128e-07
0.00251189
5.58529e-12
3.27657e-07
0.00251344
7.19659e-12
2.79687e-07
0.00251503
8.87546e-12
2.30077e-07
0.00251663
1.06057e-11
1.78301e-07
0.00251825
1.24005e-11
1.27315e-07
1.41301e-11
9.99944e-08
0.00250016
-4.24047e-08
3.12932e-07
0.00250015
-1.35245e-07
4.44342e-07
0.00250019
-2.57905e-07
4.98732e-07
0.00250039
-4.11899e-07
5.25524e-07
0.00250076
-5.82275e-07
5.42848e-07
0.0025013
-7.55489e-07
5.53437e-07
0.00250201
-9.22697e-07
5.56202e-07
0.00250286
-1.07701e-06
5.50527e-07
0.00250386
-1.21402e-06
5.36696e-07
0.00250498
-1.33208e-06
5.15412e-07
0.0025062
-1.43125e-06
4.87507e-07
0.00250752
-1.51245e-06
4.53889e-07
0.00250892
-1.57704e-06
4.15477e-07
0.00251038
-1.62647e-06
3.73128e-07
0.00251189
-1.66186e-06
3.27657e-07
0.00251344
-1.68374e-06
2.79687e-07
0.00251503
-1.69204e-06
2.30077e-07
0.00251663
-1.68566e-06
1.78301e-07
0.00251825
-1.66364e-06
1.27315e-07
-1.61978e-06
9.99944e-08
0.00250016
-7.45345e-08
3.18821e-07
0.00250012
-2.44167e-07
4.52453e-07
0.00250014
-4.88406e-07
5.08245e-07
0.00250032
-8.03866e-07
5.36225e-07
0.00250068
-1.15224e-06
5.54518e-07
0.00250122
-1.50508e-06
5.65756e-07
0.00250192
-1.84464e-06
5.68736e-07
0.00250278
-2.15667e-06
5.62848e-07
0.00250378
-2.43278e-06
5.48508e-07
0.0025049
-2.67036e-06
5.26517e-07
0.00250613
-2.86985e-06
4.97762e-07
0.00250746
-3.03317e-06
4.63186e-07
0.00250886
-3.16299e-06
4.23733e-07
0.00251032
-3.26202e-06
3.80274e-07
0.00251184
-3.33234e-06
3.33634e-07
0.0025134
-3.37499e-06
2.84445e-07
0.00251499
-3.38973e-06
2.33574e-07
0.0025166
-3.37408e-06
1.80484e-07
0.00251821
-3.32595e-06
1.28223e-07
-3.22785e-06
9.89453e-08
0.00250014
-7.92489e-08
3.30504e-07
0.00250005
-2.87153e-07
4.68421e-07
0.00250001
-6.54465e-07
5.26984e-07
0.00250015
-1.15019e-06
5.57496e-07
0.00250049
-1.6933e-06
5.78097e-07
0.00250101
-2.23931e-06
5.9127e-07
0.00250171
-2.76196e-06
5.95477e-07
0.00250257
-3.23974e-06
5.89912e-07
0.00250358
-3.66142e-06
5.75057e-07
0.00250472
-4.02416e-06
5.5184e-07
0.00250597
-4.32856e-06
5.21297e-07
0.00250731
-4.57702e-06
4.84537e-07
0.00250873
-4.77311e-06
4.42632e-07
0.00251021
-4.92052e-06
3.96538e-07
0.00251174
-5.02239e-06
3.47144e-07
0.00251331
-5.08047e-06
2.95126e-07
0.0025149
-5.09496e-06
2.41385e-07
0.0025165
-5.0618e-06
1.85353e-07
0.0025181
-4.97804e-06
1.30267e-07
-4.80329e-06
9.63582e-08
0.00250009
-1.66149e-08
3.4752e-07
0.00249988
-1.89649e-07
4.91248e-07
0.00249973
-6.94869e-07
5.53734e-07
0.00249979
-1.40486e-06
5.87742e-07
0.00250008
-2.17304e-06
6.10837e-07
0.00250058
-2.94217e-06
6.25283e-07
0.00250128
-3.67272e-06
6.29571e-07
0.00250216
-4.33452e-06
6.23472e-07
0.0025032
-4.91649e-06
6.07909e-07
0.00250438
-5.4165e-06
5.83719e-07
0.00250567
-5.83409e-06
5.51738e-07
0.00250705
-6.17076e-06
5.12973e-07
0.00250851
-6.43022e-06
4.68461e-07
0.00251002
-6.61736e-06
4.19201e-07
0.00251157
-6.73729e-06
3.66184e-07
0.00251314
-6.79415e-06
3.10206e-07
0.00251471
-6.7907e-06
2.52287e-07
0.00251627
-6.72225e-06
1.91861e-07
0.00251782
-6.58733e-06
1.3253e-07
-6.30175e-06
9.06034e-08
0.00249996
2.11128e-07
3.68404e-07
0.00249949
1.92645e-07
5.18429e-07
0.00249918
-5.36074e-07
5.87843e-07
0.00249914
-1.51739e-06
6.30978e-07
0.00249935
-2.53855e-06
6.64174e-07
0.00249981
-3.57233e-06
6.88353e-07
0.00250051
-4.56301e-06
6.99493e-07
0.00250144
-5.46081e-06
6.9654e-07
0.00250256
-6.24691e-06
6.8084e-07
0.00250384
-6.91328e-06
6.53753e-07
0.00250523
-7.45489e-06
6.16739e-07
0.0025067
-7.87243e-06
5.71437e-07
0.00250822
-8.17234e-06
5.19404e-07
0.00250976
-8.36466e-06
4.62072e-07
0.0025113
-8.46128e-06
4.008e-07
0.00251281
-8.4736e-06
3.36666e-07
0.00251429
-8.41228e-06
2.70867e-07
0.00251573
-8.27499e-06
2.0281e-07
0.00251714
-8.06885e-06
1.36454e-07
-7.63333e-06
8.09051e-08
0.00249961
8.53548e-07
3.88647e-07
0.00249851
1.27893e-06
5.36722e-07
0.00249776
1.03698e-07
6.03884e-07
0.00249752
-1.40205e-06
6.46329e-07
0.00249774
-2.88618e-06
6.77148e-07
0.00249835
-4.31571e-06
6.98879e-07
0.00249928
-5.63026e-06
7.10928e-07
0.00250046
-6.79559e-06
7.13734e-07
0.00250183
-7.79822e-06
7.06622e-07
0.00250333
-8.62057e-06
6.87872e-07
0.00250489
-9.24993e-06
6.5677e-07
0.00250647
-9.68874e-06
6.13885e-07
0.00250801
-9.95263e-06
5.60647e-07
0.00250947
-1.00649e-05
4.99083e-07
0.00251085
-1.00524e-05
4.31455e-07
0.00251212
-9.94146e-06
3.59763e-07
0.0025133
-9.75871e-06
2.85933e-07
0.00251441
-9.50881e-06
2.09846e-07
0.00251548
-9.22442e-06
1.36131e-07
-8.62723e-06
6.35558e-08
0.00249875
2.45111e-06
4.07928e-07
0.00249721
3.00154e-06
5.82415e-07
0.00249602
1.43021e-06
6.78043e-07
0.00249531
-5.37093e-07
7.54554e-07
0.00249534
-2.79437e-06
8.3277e-07
0.00249615
-5.04946e-06
8.99912e-07
0.00249754
-7.02376e-06
9.43111e-07
0.00249929
-8.6338e-06
9.60766e-07
0.00250119
-9.87794e-06
9.52132e-07
0.00250309
-1.07645e-05
9.17812e-07
0.00250486
-1.13171e-05
8.61608e-07
0.00250642
-1.1579e-05
7.88476e-07
0.00250774
-1.16048e-05
7.03234e-07
0.0025088
-1.14508e-05
6.10404e-07
0.00250963
-1.11708e-05
5.13912e-07
0.00251024
-1.08125e-05
4.16784e-07
0.00251069
-1.04254e-05
3.21339e-07
0.00251104
-1.00223e-05
2.27601e-07
0.0025114
-9.69607e-06
1.39912e-07
-9.01337e-06
4.37056e-08
0.00248995
1.28463e-05
3.19619e-07
0.00248697
6.14897e-06
3.86363e-07
0.00248757
8.88035e-07
4.70564e-07
0.00248991
-2.8058e-06
5.55155e-07
0.002493
-5.73732e-06
6.36977e-07
0.00249623
-8.1003e-06
7.07085e-07
0.00249925
-9.91316e-06
7.61844e-07
0.00250189
-1.12315e-05
8.05381e-07
0.00250403
-1.20948e-05
8.32585e-07
0.00250561
-1.25322e-05
8.35529e-07
0.00250661
-1.25973e-05
8.1123e-07
0.00250706
-1.23683e-05
7.6109e-07
0.00250702
-1.19299e-05
6.89286e-07
0.00250657
-1.13609e-05
6.01742e-07
0.00250579
-1.07308e-05
5.04633e-07
0.00250478
-1.00979e-05
4.03747e-07
0.00250364
-9.53098e-06
3.03736e-07
0.00250247
-9.04097e-06
2.07157e-07
0.00250149
-8.84504e-06
1.20054e-07
-8.35874e-06
1.89029e-08
0.00249565
1.81969e-05
6.5459e-07
0.00248975
1.25263e-05
8.12946e-07
0.00248706
3.90476e-06
9.35644e-07
0.00248882
-3.91338e-06
1.14008e-06
0.00249371
-9.67748e-06
1.42312e-06
0.00249927
-1.27784e-05
1.71581e-06
0.00250379
-1.39332e-05
1.95145e-06
0.00250661
-1.4038e-05
2.08771e-06
0.00250765
-1.35727e-05
2.10861e-06
0.00250708
-1.27557e-05
2.02277e-06
0.00250522
-1.17344e-05
1.85388e-06
0.00250239
-1.06296e-05
1.6302e-06
0.00249892
-9.53091e-06
1.37829e-06
0.00249506
-8.50036e-06
1.11988e-06
0.00249106
-7.58462e-06
8.69806e-07
0.00248706
-6.8165e-06
6.39287e-07
0.00248322
-6.25532e-06
4.34797e-07
0.00247968
-5.9172e-06
2.60497e-07
0.00247672
-6.16319e-06
1.19128e-07
-6.37293e-06
-5.99062e-09
0.00251907
2.93926e-07
0.00253091
1.04817e-06
0.0025338
1.29108e-06
0.00252885
1.27513e-06
0.00251787
1.07917e-06
0.00250358
8.01346e-07
0.00248808
5.3361e-07
0.00247257
3.08119e-07
0.00245767
1.32655e-07
0.00244378
1.016e-08
0.00243109
-6.49877e-08
0.00241966
-1.06333e-07
0.00240948
-1.28841e-07
0.00240044
-1.44533e-07
0.00239243
-1.62067e-07
0.00238528
-1.8465e-07
0.00237877
-2.122e-07
0.00237268
-2.29512e-07
0.00236638
-2.2574e-07
-1.44465e-07
0.00251728
-1.75816e-05
5.97646e-07
0.00252933
-1.19879e-05
9.79774e-07
0.00253325
-3.69584e-06
1.07538e-06
0.00252971
3.75671e-06
1.05343e-06
0.00252062
9.19254e-06
9.78642e-07
0.00250857
1.19544e-05
8.94452e-07
0.00249553
1.27603e-05
8.16442e-07
0.00248251
1.25875e-05
7.40725e-07
0.00246999
1.19911e-05
6.6207e-07
0.0024582
1.1214e-05
5.80641e-07
0.00244726
1.0383e-05
4.97804e-07
0.00243716
9.57287e-06
4.13566e-07
0.00242789
8.81938e-06
3.27495e-07
0.00241937
8.13472e-06
2.39558e-07
0.00241153
7.5275e-06
1.49927e-07
0.00240428
7.00631e-06
5.95484e-08
0.00239747
6.62412e-06
-2.71462e-08
0.00239097
6.37788e-06
-1.05387e-07
0.0023842
6.6724e-06
-1.26773e-07
6.75814e-06
-1.87758e-07
0.00249524
-1.27008e-05
5.35306e-07
0.00248912
-5.75202e-06
6.96016e-07
0.0024862
-6.43406e-07
8.03834e-07
0.00248749
2.71415e-06
8.9472e-07
0.00249193
5.1953e-06
9.78578e-07
0.00249748
7.05748e-06
1.05954e-06
0.00250266
8.39579e-06
1.13901e-06
0.00250677
9.34895e-06
1.21418e-06
0.00250957
1.00174e-05
1.27895e-06
0.00251104
1.04483e-05
1.32695e-06
0.00251125
1.06745e-05
1.35259e-06
0.00251037
1.07291e-05
1.35134e-06
0.0025086
1.06436e-05
1.32056e-06
0.00250615
1.04466e-05
1.25989e-06
0.00250321
1.01688e-05
1.17061e-06
0.00249996
9.83883e-06
1.05533e-06
0.00249659
9.51236e-06
9.17002e-07
0.0024933
9.17789e-06
7.52066e-07
0.00249044
9.08613e-06
5.63798e-07
8.54837e-06
2.54823e-07
0.00248962
-2.417e-06
4.15597e-07
0.00248664
-2.8731e-06
4.892e-07
0.00248723
-1.29941e-06
5.30899e-07
0.00248951
4.35656e-07
5.61799e-07
0.00249251
2.24621e-06
5.84427e-07
0.0024957
3.97174e-06
6.04401e-07
0.00249878
5.44551e-06
6.23377e-07
0.00250164
6.6593e-06
6.42311e-07
0.00250417
7.65962e-06
6.60432e-07
0.0025063
8.47114e-06
6.75494e-07
0.002508
9.10394e-06
6.85014e-07
0.00250924
9.56894e-06
6.86026e-07
0.00251001
9.87959e-06
6.75199e-07
0.00251036
1.0051e-05
6.49707e-07
0.00251033
1.01023e-05
6.07719e-07
0.00250997
1.00531e-05
5.48281e-07
0.00250938
9.93663e-06
4.71365e-07
0.00250864
9.74711e-06
3.73174e-07
0.00250799
9.59911e-06
2.5967e-07